 DBCSR| CPU Multiplication driver                                           XSMM
 DBCSR| Multrec recursion limit                                              512
 DBCSR| Multiplication stack size                                           1000
 DBCSR| Maximum elements for images                                    UNLIMITED
 DBCSR| Multiplicative factor virtual images                                   1
 DBCSR| Use multiplication densification                                       T
 DBCSR| Multiplication size stacks                                             3
 DBCSR| Use memory pool for CPU allocation                                     F
 DBCSR| Number of 3D layers                                               SINGLE
 DBCSR| Use MPI memory allocation                                              F
 DBCSR| Use RMA algorithm                                                      F
 DBCSR| Use Communication thread                                               T
 DBCSR| Communication thread load                                             87
 DBCSR| MPI: My node id                                                        0
 DBCSR| MPI: Number of nodes                                                  56
 DBCSR| OMP: Current number of threads                                         1
 DBCSR| OMP: Max number of threads                                             1
 DBCSR| Split modifier for TAS multiplication algorithm                  1.0E+00


  **** **** ******  **  PROGRAM STARTED AT               2024-03-24 09:53:15.388
 ***** ** ***  *** **   PROGRAM STARTED ON                           ibc11b02n02
 **    ****   ******    PROGRAM STARTED BY                                 junli
 ***** **    ** ** **   PROGRAM PROCESS ID                                109348
  **** **  *******  **  PROGRAM STARTED IN    /WORK/junli_work/libin/1_U28/3_try

 CP2K| version string:                                          CP2K version 9.1
 CP2K| source code revision number:                                  git:d8d7100
 CP2K| cp2kflags: omp libint fftw3 libxc elpa parallel mpi3 scalapack cosma xsmm
 CP2K|             plumed2 spglib libvori libbqb
 CP2K| is freely available from                            https://www.cp2k.org/
 CP2K| Program compiled at                          Sun Aug 13 14:10:33 CST 2023
 CP2K| Program compiled on                                               ibcln01
 CP2K| Program compiled for                                                local
 CP2K| Data directory path                         /apps/soft/cp2k/cp2k-9.1/data
 CP2K| Input file name                                                  cp2k.inp

 GLOBAL| Force Environment number                                              1
 GLOBAL| Basis set file name                                        BASIS_MOLOPT
 GLOBAL| Potential file name                                      GTH_POTENTIALS
 GLOBAL| MM Potential file name                                     MM_POTENTIAL
 GLOBAL| Coordinate file name                                            U28.xyz
 GLOBAL| Method name                                                        CP2K
 GLOBAL| Project name                                                  U28_3_try
 GLOBAL| Run type                                                        GEO_OPT
 GLOBAL| FFT library                                                       FFTW3
 GLOBAL| Diagonalization library                                            ELPA
 GLOBAL| Minimum number of eigenvectors for ELPA usage                        16
 GLOBAL| Orthonormality check for eigenvectors                          DISABLED
 GLOBAL| Matrix multiplication library                                     COSMA
 GLOBAL| All-to-all communication in single precision                          F
 GLOBAL| FFTs using library dependent lengths                                  F
 GLOBAL| Grid backend                                                       AUTO
 GLOBAL| Global print level                                                  LOW
 GLOBAL| MPI I/O enabled                                                       T
 GLOBAL| Total number of message passing processes                            56
 GLOBAL| Number of threads for this process                                    1
 GLOBAL| This output is from process                                           0
 GLOBAL| Stack size for threads created by OpenMP (OMP_STACKSIZE)        default
 GLOBAL| CPU model name                Intel(R) Xeon(R) Gold 6258R CPU @ 2.70GHz
 GLOBAL| CPUID                                                              1003

 MEMORY| system memory details [Kb]
 MEMORY|                        rank 0           min           max       average
 MEMORY| MemTotal            196695896     196695896     196695896     196695896
 MEMORY| MemFree             162341576     162341576     162341576     162341576
 MEMORY| Buffers                     0             0             0             0
 MEMORY| Cached                9670640       9670640       9670640       9670640
 MEMORY| Slab                  2344756       2344756       2344756       2344756
 MEMORY| SReclaimable           208356        208356        208356        208356
 MEMORY| MemLikelyFree       172220572     172220572     172220572     172220572


 *******************************************************************************
 *******************************************************************************
 **                                                                           **
 **     #####                         ##              ##                      **
 **    ##   ##            ##          ##              ##                      **
 **   ##     ##                       ##            ######                    **
 **   ##     ##  ##   ##  ##   #####  ##  ##   ####   ##    #####    #####    **
 **   ##     ##  ##   ##  ##  ##      ## ##   ##      ##   ##   ##  ##   ##   **
 **   ##  ## ##  ##   ##  ##  ##      ####     ###    ##   ######   ######    **
 **    ##  ###   ##   ##  ##  ##      ## ##      ##   ##   ##       ##        **
 **     #######   #####   ##   #####  ##  ##  ####    ##    #####   ##        **
 **           ##                                                    ##        **
 **                                                                           **
 **                                                ... make the atoms dance   **
 **                                                                           **
 **            Copyright (C) by CP2K developers group (2000-2021)             **
 **                      J. Chem. Phys. 152, 194103 (2020)                    **
 **                                                                           **
 *******************************************************************************


 TOTAL NUMBERS AND MAXIMUM NUMBERS

  Total number of            - Atomic kinds:                                   3
                             - Atoms:                                        196
                             - Shell sets:                                   196
                             - Shells:                                      1148
                             - Primitive Cartesian functions:               1064
                             - Cartesian basis functions:                   3948
                             - Spherical basis functions:                   3388

  Maximum angular momentum of- Orbital basis functions:                        4
                             - Local part of the GTH pseudopotential:          2
                             - Non-local part of the GTH pseudopotential:      3


 SCF PARAMETERS         Density guess:                                   RESTART
                        --------------------------------------------------------
                        max_scf:                                              50
                        max_scf_history:                                       0
                        max_diis:                                              4
                        --------------------------------------------------------
                        eps_scf:                                        1.00E-05
                        eps_scf_history:                                0.00E+00
                        eps_diis:                                       1.00E-01
                        eps_eigval:                                     1.00E-05
                        --------------------------------------------------------
                        level_shift [a.u.]:                                 0.00
                        --------------------------------------------------------
                        Outer loop SCF in use 
                        No variables optimised in outer loop
                        eps_scf                                         1.00E-05
                        max_scf                                               10
                        No outer loop optimization
                        step_size                                       5.00E-01

 BFGS| Use rational function optimization for step estimation:                NO
 BFGS| Use model Hessian for initial guess:                                  YES
 BFGS| Restart Hessian:                                                       NO
 BFGS| Trust radius:                                                       0.472

 *******************************************************************************
 ***                     STARTING GEOMETRY OPTIMIZATION                      ***
 ***                                   BFGS                                  ***
 *******************************************************************************

 Number of electrons:                                                       1484
 Number of occupied orbitals:                                                742
 Number of molecular orbitals:                                               742

 Number of orbital functions:                                               3388
 Number of independent orbital functions:                                   3388

 Extrapolation method: initial_guess

 *** WARNING in qs_initial_guess.F:309 :: User requested to restart the   ***
 *** wavefunction from the file named: U28_3_try-RESTART.wfn. This file   ***
 *** does not exist. Please check the existence of the file or change     ***
 *** properly the value of the keyword WFN_RESTART_FILE_NAME. Calculation ***
 *** continues using ATOMIC GUESS.                                        ***



 SCF WAVEFUNCTION OPTIMIZATION

  ----------------------------------- OT ---------------------------------------
  Minimizer      : DIIS                : direct inversion
                                         in the iterative subspace
                                         using   7 DIIS vectors
                                         safer DIIS on
  Preconditioner : FULL_SINGLE         : diagonalization based
  Precond_solver : DEFAULT
  stepsize       :    0.15000000                  energy_gap     :    0.20000000
  eps_taylor     :   0.10000E-15                  max_taylor     :             4
  ----------------------------------- OT ---------------------------------------

  Step     Update method      Time    Convergence         Total energy    Change
  ------------------------------------------------------------------------------
     1 OT DIIS     0.15E+00    7.5     0.03337591     -4343.4799445121 -4.34E+03
     2 OT DIIS     0.15E+00    4.2     0.06740467     -4186.9329850030  1.57E+02
     3 OT DIIS     0.15E+00    4.1     0.09283072     -4242.3331850671 -5.54E+01
     4 OT DIIS     0.15E+00    3.9     0.09860985     -4278.6489629232 -3.63E+01
     5 OT DIIS     0.15E+00    4.1     0.05763714     -4359.6012665338 -8.10E+01
     6 OT DIIS     0.15E+00    3.8     0.04089798     -4390.9805229274 -3.14E+01
     7 OT DIIS     0.15E+00    3.8     0.02116864     -4417.4053457824 -2.64E+01
     8 OT DIIS     0.15E+00    3.8     0.01978377     -4426.7360881361 -9.33E+00
     9 OT DIIS     0.15E+00    3.9     0.02611793     -4423.9738515000  2.76E+00
    10 OT DIIS     0.15E+00    3.7     0.01615309     -4439.6762344819 -1.57E+01
    11 OT DIIS     0.15E+00    4.0     0.00965447     -4446.0989811613 -6.42E+00
    12 OT DIIS     0.15E+00    3.8     0.00745838     -4448.8360451448 -2.74E+00
    13 OT DIIS     0.15E+00    3.9     0.00522355     -4450.9847736514 -2.15E+00
    14 OT DIIS     0.15E+00    4.0     0.00393283     -4452.1727018796 -1.19E+00
    15 OT DIIS     0.15E+00    4.0     0.00318578     -4452.8879933913 -7.15E-01
    16 OT DIIS     0.15E+00    4.0     0.00264959     -4453.5024751465 -6.14E-01
    17 OT DIIS     0.15E+00    3.8     0.00228466     -4453.9539805133 -4.52E-01
    18 OT DIIS     0.15E+00    3.7     0.00197905     -4454.2959469441 -3.42E-01
    19 OT DIIS     0.15E+00    4.0     0.00153693     -4454.5899710136 -2.94E-01
    20 OT DIIS     0.15E+00    4.0     0.00140514     -4454.8173436913 -2.27E-01
    21 OT DIIS     0.15E+00    3.8     0.00116879     -4455.0499320659 -2.33E-01
    22 OT DIIS     0.15E+00    3.6     0.00109667     -4455.2074675614 -1.58E-01
    23 OT DIIS     0.15E+00    3.9     0.00100533     -4455.3301733671 -1.23E-01
    24 OT DIIS     0.15E+00    4.0     0.00095734     -4455.4294990998 -9.93E-02
    25 OT DIIS     0.15E+00    4.0     0.00098364     -4455.4959704528 -6.65E-02
    26 OT DIIS     0.15E+00    4.0     0.00089512     -4455.5565796008 -6.06E-02
    27 OT DIIS     0.15E+00    3.7     0.00080529     -4455.6130269220 -5.64E-02
    28 OT DIIS     0.15E+00    4.0     0.00076967     -4455.6630396356 -5.00E-02
    29 OT DIIS     0.15E+00    3.8     0.00069653     -4455.6881700487 -2.51E-02
    30 OT DIIS     0.15E+00    3.8     0.00065120     -4455.7233648784 -3.52E-02
    31 OT DIIS     0.15E+00    3.8     0.00060258     -4455.7403689038 -1.70E-02
    32 OT DIIS     0.15E+00    3.9     0.00053947     -4455.7650022524 -2.46E-02
    33 OT DIIS     0.15E+00    4.0     0.00053155     -4455.7893553014 -2.44E-02
    34 OT DIIS     0.15E+00    4.1     0.00049844     -4455.8041903897 -1.48E-02
    35 OT DIIS     0.15E+00    4.0     0.00045384     -4455.8245876711 -2.04E-02
    36 OT DIIS     0.15E+00    4.0     0.00044393     -4455.8507390448 -2.62E-02
    37 OT DIIS     0.15E+00    3.9     0.00044621     -4455.8692242287 -1.85E-02
    38 OT DIIS     0.15E+00    4.0     0.00044562     -4455.8914416395 -2.22E-02
    39 OT DIIS     0.15E+00    4.2     0.00047351     -4455.9101997264 -1.88E-02
    40 OT DIIS     0.15E+00    4.0     0.00045422     -4455.9232419757 -1.30E-02
    41 OT DIIS     0.15E+00    3.8     0.00044643     -4455.9384315395 -1.52E-02
    42 OT DIIS     0.15E+00    4.0     0.00043271     -4455.9476013235 -9.17E-03
    43 OT DIIS     0.15E+00    3.8     0.00037972     -4455.9576477176 -1.00E-02
    44 OT DIIS     0.15E+00    3.8     0.00034069     -4455.9703647897 -1.27E-02
    45 OT DIIS     0.15E+00    3.9     0.00032556     -4455.9812279072 -1.09E-02
    46 OT DIIS     0.15E+00    4.0     0.00031175     -4455.9920386896 -1.08E-02
    47 OT DIIS     0.15E+00    3.7     0.00032184     -4456.0053680811 -1.33E-02
    48 OT DIIS     0.15E+00    3.8     0.00032534     -4456.0151696901 -9.80E-03
    49 OT DIIS     0.15E+00    4.1     0.00033645     -4456.0270200953 -1.19E-02
    50 OT DIIS     0.15E+00    4.0     0.00035159     -4456.0368377450 -9.82E-03

  Leaving inner SCF loop after reaching    50 steps.


  Electronic density on regular grids:      -1483.9999999891        0.0000000109
  Core density on regular grids:             1483.9999999310       -0.0000000690
  Total charge density on r-space grids:       -0.0000000582
  Total charge density g-space grids:          -0.0000000582

  Overlap energy of the core charge distribution:               0.00055940278795
  Self energy of the core charge distribution:             -10331.29031661960289
  Core Hamiltonian energy:                                   2712.61964734074354
  Hartree energy:                                            3955.59807534339961
  Exchange-correlation energy:                               -792.29098816886290
  Dispersion energy:                                           -0.67381504348739

  Total energy:                                             -4456.03683774502224

  outer SCF iter =    1 RMS gradient =   0.35E-03 energy =      -4456.0368377450

  ----------------------------------- OT ---------------------------------------
  Minimizer      : DIIS                : direct inversion
                                         in the iterative subspace
                                         using   7 DIIS vectors
                                         safer DIIS on
  Preconditioner : FULL_SINGLE         : diagonalization based
  Precond_solver : DEFAULT
  stepsize       :    0.15000000                  energy_gap     :    0.20000000
  eps_taylor     :   0.10000E-15                  max_taylor     :             4
  ----------------------------------- OT ---------------------------------------

  Step     Update method      Time    Convergence         Total energy    Change
  ------------------------------------------------------------------------------
     1 OT DIIS     0.15E+00   12.3     0.00104952     -4456.0450078773 -8.17E-03
     2 OT DIIS     0.15E+00    3.7     0.00179229     -4456.1287767232 -8.38E-02
     3 OT DIIS     0.15E+00    4.0     0.00103215     -4456.2482415025 -1.19E-01
     4 OT DIIS     0.15E+00    4.0     0.00066178     -4456.3075151199 -5.93E-02
     5 OT DIIS     0.15E+00    3.9     0.00061151     -4456.3403036726 -3.28E-02
     6 OT DIIS     0.15E+00    3.8     0.00040844     -4456.3700534272 -2.97E-02
     7 OT DIIS     0.15E+00    3.8     0.00030583     -4456.3893957088 -1.93E-02
     8 OT DIIS     0.15E+00    4.1     0.00028080     -4456.4060029648 -1.66E-02
     9 OT DIIS     0.15E+00    4.1     0.00020897     -4456.4177096621 -1.17E-02
    10 OT DIIS     0.15E+00    4.1     0.00020777     -4456.4296272998 -1.19E-02
    11 OT DIIS     0.15E+00    3.8     0.00017618     -4456.4401047003 -1.05E-02
    12 OT DIIS     0.15E+00    3.8     0.00015321     -4456.4489822171 -8.88E-03
    13 OT DIIS     0.15E+00    4.1     0.00014415     -4456.4567207002 -7.74E-03
    14 OT DIIS     0.15E+00    3.9     0.00012310     -4456.4630450361 -6.32E-03
    15 OT DIIS     0.15E+00    3.7     0.00011474     -4456.4682945035 -5.25E-03
    16 OT DIIS     0.15E+00    3.7     0.00010764     -4456.4733926659 -5.10E-03
    17 OT DIIS     0.15E+00    4.1     0.00009316     -4456.4774514566 -4.06E-03
    18 OT DIIS     0.15E+00    4.0     0.00008665     -4456.4811870338 -3.74E-03
    19 OT DIIS     0.15E+00    4.0     0.00008006     -4456.4842230047 -3.04E-03
    20 OT DIIS     0.15E+00    4.0     0.00007206     -4456.4867553439 -2.53E-03
    21 OT DIIS     0.15E+00    4.0     0.00006981     -4456.4891557397 -2.40E-03
    22 OT DIIS     0.15E+00    4.0     0.00006459     -4456.4912027462 -2.05E-03
    23 OT DIIS     0.15E+00    3.7     0.00006109     -4456.4929201585 -1.72E-03
    24 OT DIIS     0.15E+00    4.1     0.00005689     -4456.4946144566 -1.69E-03
    25 OT DIIS     0.15E+00    3.9     0.00005125     -4456.4958838758 -1.27E-03
    26 OT DIIS     0.15E+00    4.1     0.00004908     -4456.4972296823 -1.35E-03
    27 OT DIIS     0.15E+00    3.9     0.00004679     -4456.4983369308 -1.11E-03
    28 OT DIIS     0.15E+00    3.9     0.00004360     -4456.4993185878 -9.82E-04
    29 OT DIIS     0.15E+00    4.1     0.00004191     -4456.5002632769 -9.45E-04
    30 OT DIIS     0.15E+00    4.1     0.00003897     -4456.5010569139 -7.94E-04
    31 OT DIIS     0.15E+00    3.7     0.00003765     -4456.5017312983 -6.74E-04
    32 OT DIIS     0.15E+00    3.7     0.00003631     -4456.5024469675 -7.16E-04
    33 OT DIIS     0.15E+00    4.1     0.00003364     -4456.5029949794 -5.48E-04
    34 OT DIIS     0.15E+00    4.1     0.00003191     -4456.5036081812 -6.13E-04
    35 OT DIIS     0.15E+00    4.1     0.00003101     -4456.5041200145 -5.12E-04
    36 OT DIIS     0.15E+00    4.0     0.00002906     -4456.5045662552 -4.46E-04
    37 OT DIIS     0.15E+00    4.2     0.00002796     -4456.5050024875 -4.36E-04
    38 OT DIIS     0.15E+00    3.8     0.00002729     -4456.5054209152 -4.18E-04
    39 OT DIIS     0.15E+00    4.0     0.00002581     -4456.5057542167 -3.33E-04
    40 OT DIIS     0.15E+00    4.1     0.00002530     -4456.5061455671 -3.91E-04
    41 OT DIIS     0.15E+00    4.1     0.00002370     -4456.5064059141 -2.60E-04
    42 OT DIIS     0.15E+00    3.6     0.00002264     -4456.5067276513 -3.22E-04
    43 OT DIIS     0.15E+00    4.0     0.00002175     -4456.5069938859 -2.66E-04
    44 OT DIIS     0.15E+00    3.7     0.00002124     -4456.5072467784 -2.53E-04
    45 OT DIIS     0.15E+00    3.8     0.00002042     -4456.5074869559 -2.40E-04
    46 OT DIIS     0.15E+00    3.9     0.00001938     -4456.5077153848 -2.28E-04
    47 OT DIIS     0.15E+00    4.1     0.00001923     -4456.5078943727 -1.79E-04
    48 OT DIIS     0.15E+00    4.1     0.00001832     -4456.5081175841 -2.23E-04
    49 OT DIIS     0.15E+00    3.7     0.00001773     -4456.5082652617 -1.48E-04
    50 OT DIIS     0.15E+00    4.1     0.00001693     -4456.5084542289 -1.89E-04

  Leaving inner SCF loop after reaching    50 steps.


  Electronic density on regular grids:      -1483.9999999891        0.0000000109
  Core density on regular grids:             1483.9999999310       -0.0000000690
  Total charge density on r-space grids:       -0.0000000581
  Total charge density g-space grids:          -0.0000000581

  Overlap energy of the core charge distribution:               0.00055940278795
  Self energy of the core charge distribution:             -10331.29031661960289
  Core Hamiltonian energy:                                   2711.43094301168730
  Hartree energy:                                            3956.38445323996211
  Exchange-correlation energy:                               -792.36027822023743
  Dispersion energy:                                           -0.67381504348739

  Total energy:                                             -4456.50845422889051

  outer SCF iter =    2 RMS gradient =   0.17E-04 energy =      -4456.5084542289

  ----------------------------------- OT ---------------------------------------
  Minimizer      : DIIS                : direct inversion
                                         in the iterative subspace
                                         using   7 DIIS vectors
                                         safer DIIS on
  Preconditioner : FULL_SINGLE         : diagonalization based
  Precond_solver : DEFAULT
  stepsize       :    0.15000000                  energy_gap     :    0.20000000
  eps_taylor     :   0.10000E-15                  max_taylor     :             4
  ----------------------------------- OT ---------------------------------------

  Step     Update method      Time    Convergence         Total energy    Change
  ------------------------------------------------------------------------------
     1 OT DIIS     0.15E+00   12.5     0.00001864     -4456.5086193863 -1.65E-04
     2 OT DIIS     0.15E+00    3.7     0.00003777     -4456.5086871986 -6.78E-05
     3 OT DIIS     0.15E+00    4.0     0.00001678     -4456.5087443669 -5.72E-05
     4 OT DIIS     0.15E+00    4.0     0.00001742     -4456.5088083774 -6.40E-05
     5 OT DIIS     0.15E+00    4.0     0.00002224     -4456.5090818657 -2.73E-04
     6 OT DIIS     0.15E+00    3.6     0.00001351     -4456.5094388492 -3.57E-04
     7 OT DIIS     0.15E+00    4.1     0.00001285     -4456.5095526778 -1.14E-04
     8 OT DIIS     0.15E+00    3.8     0.00001198     -4456.5096475204 -9.48E-05
     9 OT DIIS     0.15E+00    4.0     0.00001116     -4456.5097217044 -7.42E-05
    10 OT DIIS     0.15E+00    4.1     0.00001154     -4456.5098029098 -8.12E-05
    11 OT DIIS     0.15E+00    4.0     0.00001175     -4456.5099113805 -1.08E-04
    12 OT DIIS     0.15E+00    3.8     0.00001068     -4456.5099855085 -7.41E-05
    13 OT DIIS     0.15E+00    4.0     0.00000964     -4456.5100621435 -7.66E-05

  *** SCF run converged in    13 steps ***


  Electronic density on regular grids:      -1483.9999999951        0.0000000049
  Core density on regular grids:             1483.9999999310       -0.0000000690
  Total charge density on r-space grids:       -0.0000000641
  Total charge density g-space grids:          -0.0000000641

  Overlap energy of the core charge distribution:               0.00055940278795
  Self energy of the core charge distribution:             -10331.29031661960289
  Core Hamiltonian energy:                                   2711.42992644842298
  Hartree energy:                                            3956.38556579252690
  Exchange-correlation energy:                               -792.36198212409795
  Dispersion energy:                                           -0.67381504348739

  Total energy:                                             -4456.51006214345034

  outer SCF iter =    3 RMS gradient =   0.96E-05 energy =      -4456.5100621435
  outer SCF loop converged in   3 iterations or  113 steps


 ENERGY| Total FORCE_EVAL ( QS ) energy [a.u.]:            -4456.510139046488803

 --------  Informations at step =     0 ------------
  Optimization Method        =                 BFGS
  Total Energy               =     -4456.5101390465
  Used time                  =              468.216
 ---------------------------------------------------

 --------------------------
 OPTIMIZATION STEP:      1
 --------------------------

  Step is scaled; Scaling factor =  0.52910

 Number of electrons:                                                       1484
 Number of occupied orbitals:                                                742
 Number of molecular orbitals:                                               742

 Number of orbital functions:                                               3388
 Number of independent orbital functions:                                   3388

 Extrapolation method: ASPC


 SCF WAVEFUNCTION OPTIMIZATION

  ----------------------------------- OT ---------------------------------------
  Minimizer      : DIIS                : direct inversion
                                         in the iterative subspace
                                         using   7 DIIS vectors
                                         safer DIIS on
  Preconditioner : FULL_SINGLE         : diagonalization based
  Precond_solver : DEFAULT
  stepsize       :    0.15000000                  energy_gap     :    0.20000000
  eps_taylor     :   0.10000E-15                  max_taylor     :             4
  ----------------------------------- OT ---------------------------------------

  Step     Update method      Time    Convergence         Total energy    Change
  ------------------------------------------------------------------------------
     1 OT DIIS     0.15E+00    7.5     0.00298144     -4458.1074448550 -4.46E+03
     2 OT DIIS     0.15E+00    4.1     0.00302387     -4459.3872723090 -1.28E+00
     3 OT DIIS     0.15E+00    3.9     0.00345923     -4459.4582262655 -7.10E-02
     4 OT DIIS     0.15E+00    4.1     0.00177205     -4459.8422263900 -3.84E-01
     5 OT DIIS     0.15E+00    4.1     0.00086073     -4459.9749104095 -1.33E-01
     6 OT DIIS     0.15E+00    4.1     0.00052976     -4460.0059902388 -3.11E-02
     7 OT DIIS     0.15E+00    4.0     0.00040605     -4460.0191119231 -1.31E-02
     8 OT DIIS     0.15E+00    4.0     0.00026936     -4460.0286329069 -9.52E-03
     9 OT DIIS     0.15E+00    3.9     0.00018776     -4460.0340104484 -5.38E-03
    10 OT DIIS     0.15E+00    4.1     0.00017107     -4460.0376390414 -3.63E-03
    11 OT DIIS     0.15E+00    4.1     0.00012324     -4460.0416245509 -3.99E-03
    12 OT DIIS     0.15E+00    4.1     0.00013078     -4460.0437341316 -2.11E-03
    13 OT DIIS     0.15E+00    4.1     0.00011235     -4460.0455104411 -1.78E-03
    14 OT DIIS     0.15E+00    3.8     0.00009785     -4460.0474833247 -1.97E-03
    15 OT DIIS     0.15E+00    3.9     0.00008812     -4460.0487474502 -1.26E-03
    16 OT DIIS     0.15E+00    3.9     0.00008727     -4460.0497380880 -9.91E-04
    17 OT DIIS     0.15E+00    4.1     0.00007734     -4460.0508946489 -1.16E-03
    18 OT DIIS     0.15E+00    3.6     0.00006686     -4460.0521300106 -1.24E-03
    19 OT DIIS     0.15E+00    4.1     0.00006731     -4460.0525803783 -4.50E-04
    20 OT DIIS     0.15E+00    4.1     0.00006585     -4460.0536145598 -1.03E-03
    21 OT DIIS     0.15E+00    4.0     0.00006435     -4460.0541820446 -5.67E-04
    22 OT DIIS     0.15E+00    4.0     0.00005999     -4460.0545710340 -3.89E-04
    23 OT DIIS     0.15E+00    4.0     0.00005626     -4460.0549464960 -3.75E-04
    24 OT DIIS     0.15E+00    3.9     0.00005444     -4460.0554136564 -4.67E-04
    25 OT DIIS     0.15E+00    4.1     0.00004889     -4460.0557569392 -3.43E-04
    26 OT DIIS     0.15E+00    4.2     0.00004350     -4460.0559010740 -1.44E-04
    27 OT DIIS     0.15E+00    3.7     0.00004130     -4460.0562227856 -3.22E-04
    28 OT DIIS     0.15E+00    4.2     0.00004003     -4460.0564788172 -2.56E-04
    29 OT DIIS     0.15E+00    4.0     0.00003938     -4460.0567279295 -2.49E-04
    30 OT DIIS     0.15E+00    4.2     0.00003862     -4460.0568919511 -1.64E-04
    31 OT DIIS     0.15E+00    3.6     0.00003733     -4460.0571065180 -2.15E-04
    32 OT DIIS     0.15E+00    4.1     0.00003731     -4460.0574149396 -3.08E-04
    33 OT DIIS     0.15E+00    4.3     0.00003661     -4460.0576686177 -2.54E-04
    34 OT DIIS     0.15E+00    4.2     0.00003564     -4460.0577601827 -9.16E-05
    35 OT DIIS     0.15E+00    4.2     0.00003412     -4460.0581132783 -3.53E-04
    36 OT DIIS     0.15E+00    4.2     0.00003471     -4460.0582858675 -1.73E-04
    37 OT DIIS     0.15E+00    4.0     0.00003387     -4460.0584647300 -1.79E-04
    38 OT DIIS     0.15E+00    4.0     0.00003335     -4460.0586078117 -1.43E-04
    39 OT DIIS     0.15E+00    3.8     0.00003188     -4460.0587454945 -1.38E-04
    40 OT DIIS     0.15E+00    3.9     0.00003071     -4460.0589184176 -1.73E-04
    41 OT DIIS     0.15E+00    3.9     0.00002945     -4460.0590639711 -1.46E-04
    42 OT DIIS     0.15E+00    3.9     0.00002864     -4460.0591149502 -5.10E-05
    43 OT DIIS     0.15E+00    4.2     0.00002716     -4460.0593400128 -2.25E-04
    44 OT DIIS     0.15E+00    4.2     0.00002780     -4460.0594507708 -1.11E-04
    45 OT DIIS     0.15E+00    4.0     0.00002771     -4460.0595844614 -1.34E-04
    46 OT DIIS     0.15E+00    4.2     0.00002773     -4460.0597283003 -1.44E-04
    47 OT DIIS     0.15E+00    4.1     0.00002770     -4460.0598679933 -1.40E-04
    48 OT DIIS     0.15E+00    3.8     0.00002750     -4460.0600091542 -1.41E-04
    49 OT DIIS     0.15E+00    4.1     0.00002677     -4460.0601322242 -1.23E-04
    50 OT DIIS     0.15E+00    4.0     0.00002647     -4460.0602062665 -7.40E-05

  Leaving inner SCF loop after reaching    50 steps.


  Electronic density on regular grids:      -1483.9999999892        0.0000000108
  Core density on regular grids:             1483.9999999310       -0.0000000690
  Total charge density on r-space grids:       -0.0000000582
  Total charge density g-space grids:          -0.0000000582

  Overlap energy of the core charge distribution:               0.00003829501646
  Self energy of the core charge distribution:             -10331.29031661960289
  Core Hamiltonian energy:                                   2692.41760053489361
  Hartree energy:                                            3968.77306824843572
  Exchange-correlation energy:                               -789.28921727544116
  Dispersion energy:                                           -0.67137944981178

  Total energy:                                             -4460.06020626651025

  outer SCF iter =    1 RMS gradient =   0.26E-04 energy =      -4460.0602062665

  ----------------------------------- OT ---------------------------------------
  Minimizer      : DIIS                : direct inversion
                                         in the iterative subspace
                                         using   7 DIIS vectors
                                         safer DIIS on
  Preconditioner : FULL_SINGLE         : diagonalization based
  Precond_solver : DEFAULT
  stepsize       :    0.15000000                  energy_gap     :    0.20000000
  eps_taylor     :   0.10000E-15                  max_taylor     :             4
  ----------------------------------- OT ---------------------------------------

  Step     Update method      Time    Convergence         Total energy    Change
  ------------------------------------------------------------------------------
     1 OT DIIS     0.15E+00   12.5     0.00002496     -4460.0603701396 -1.64E-04
     2 OT DIIS     0.15E+00    4.1     0.00005625     -4460.0604417049 -7.16E-05
     3 OT DIIS     0.15E+00    4.0     0.00002224     -4460.0605729205 -1.31E-04
     4 OT DIIS     0.15E+00    3.9     0.00002081     -4460.0606291306 -5.62E-05
     5 OT DIIS     0.15E+00    4.2     0.00002386     -4460.0609083201 -2.79E-04
     6 OT DIIS     0.15E+00    4.0     0.00003007     -4460.0626224827 -1.71E-03
     7 OT SD       0.15E+00    4.2     0.00002186     -4460.0630453675 -4.23E-04
     8 OT DIIS     0.15E+00    4.1     0.00004063     -4460.0630738013 -2.84E-05
     9 OT DIIS     0.15E+00    4.1     0.00001870     -4460.0631997979 -1.26E-04
    10 OT DIIS     0.15E+00    3.7     0.00001706     -4460.0635458126 -3.46E-04
    11 OT DIIS     0.15E+00    3.9     0.00001602     -4460.0636863346 -1.41E-04
    12 OT DIIS     0.15E+00    4.1     0.00001467     -4460.0639465641 -2.60E-04
    13 OT DIIS     0.15E+00    4.0     0.00001395     -4460.0641342973 -1.88E-04
    14 OT DIIS     0.15E+00    3.7     0.00001480     -4460.0643492601 -2.15E-04
    15 OT DIIS     0.15E+00    4.2     0.00001345     -4460.0643824175 -3.32E-05
    16 OT DIIS     0.15E+00    4.2     0.00001306     -4460.0646384513 -2.56E-04
    17 OT DIIS     0.15E+00    4.0     0.00001232     -4460.0647653301 -1.27E-04
    18 OT DIIS     0.15E+00    4.2     0.00001349     -4460.0648804484 -1.15E-04
    19 OT DIIS     0.15E+00    4.1     0.00001146     -4460.0649586717 -7.82E-05
    20 OT DIIS     0.15E+00    4.1     0.00001262     -4460.0650943669 -1.36E-04
    21 OT DIIS     0.15E+00    3.9     0.00001116     -4460.0652305435 -1.36E-04
    22 OT DIIS     0.15E+00    4.1     0.00001205     -4460.0654408898 -2.10E-04
    23 OT SD       0.15E+00    4.2     0.00001244     -4460.0655981084 -1.57E-04
    24 OT DIIS     0.15E+00    3.9     0.00002550     -4460.0656100906 -1.20E-05
    25 OT DIIS     0.15E+00    3.8     0.00001075     -4460.0656033099  6.78E-06
    26 OT DIIS     0.15E+00    4.1     0.00001002     -4460.0657056213 -1.02E-04
    27 OT DIIS     0.15E+00    4.3     0.00001023     -4460.0658121634 -1.07E-04
    28 OT DIIS     0.15E+00    4.2     0.00001027     -4460.0658604169 -4.83E-05
    29 OT DIIS     0.15E+00    4.3     0.00001016     -4460.0660428715 -1.82E-04
    30 OT SD       0.15E+00    3.9     0.00001088     -4460.0661962616 -1.53E-04
    31 OT DIIS     0.15E+00    3.9     0.00002691     -4460.0661927650  3.50E-06
    32 OT DIIS     0.15E+00    4.2     0.00000962     -4460.0662554991 -6.27E-05

  *** SCF run converged in    32 steps ***


  Electronic density on regular grids:      -1483.9999999892        0.0000000108
  Core density on regular grids:             1483.9999999310       -0.0000000690
  Total charge density on r-space grids:       -0.0000000582
  Total charge density g-space grids:          -0.0000000582

  Overlap energy of the core charge distribution:               0.00003829501646
  Self energy of the core charge distribution:             -10331.29031661960289
  Core Hamiltonian energy:                                   2692.42062000518990
  Hartree energy:                                            3968.76971253141073
  Exchange-correlation energy:                               -789.29493026128659
  Dispersion energy:                                           -0.67137944981178

  Total energy:                                             -4460.06625549908404

  outer SCF iter =    2 RMS gradient =   0.96E-05 energy =      -4460.0662554991
  outer SCF loop converged in   2 iterations or   82 steps


 ENERGY| Total FORCE_EVAL ( QS ) energy [a.u.]:            -4460.066329018773104

 --------  Informations at step =     1 ------------
  Optimization Method        =                 BFGS
  Total Energy               =     -4460.0663290188
  Real energy change         =        -3.5561899723
  Predicted change in energy =        -3.5061790569
  Scaling factor             =         0.5290989272
  Step size                  =         0.4724315332
  Trust radius               =         0.4724315332
  Decrease in energy         =                  YES
  Used time                  =              349.806

  Convergence check :
  Max. step size             =         0.4724315332
  Conv. limit for step size  =         0.0030000000
  Convergence in step size   =                   NO
  RMS step size              =         0.1112295108
  Conv. limit for RMS step   =         0.0015000000
  Convergence in RMS step    =                   NO
  Max. gradient              =         0.3343850344
  Conv. limit for gradients  =         0.0004500000
  Conv. for gradients        =                   NO
  RMS gradient               =         0.0641760221
  Conv. limit for RMS grad.  =         0.0003000000
  Conv. for gradients        =                   NO
 ---------------------------------------------------

 --------------------------
 OPTIMIZATION STEP:      2
 --------------------------

  Step is scaled; Scaling factor =  0.27635

 Number of electrons:                                                       1484
 Number of occupied orbitals:                                                742
 Number of molecular orbitals:                                               742

 Number of orbital functions:                                               3388
 Number of independent orbital functions:                                   3388

 Extrapolation method: ASPC


 SCF WAVEFUNCTION OPTIMIZATION

  ----------------------------------- OT ---------------------------------------
  Minimizer      : DIIS                : direct inversion
                                         in the iterative subspace
                                         using   7 DIIS vectors
                                         safer DIIS on
  Preconditioner : FULL_SINGLE         : diagonalization based
  Precond_solver : DEFAULT
  stepsize       :    0.15000000                  energy_gap     :    0.20000000
  eps_taylor     :   0.10000E-15                  max_taylor     :             4
  ----------------------------------- OT ---------------------------------------

  Step     Update method      Time    Convergence         Total energy    Change
  ------------------------------------------------------------------------------
     1 OT DIIS     0.15E+00    7.6     0.00342305     -4460.2388411590 -4.46E+03
     2 OT DIIS     0.15E+00    4.1     0.01004744     -4456.7544133148  3.48E+00
     3 OT DIIS     0.15E+00    4.1     0.00179457     -4461.1316050089 -4.38E+00
     4 OT DIIS     0.15E+00    4.2     0.00203161     -4461.1571641650 -2.56E-02
     5 OT DIIS     0.15E+00    4.1     0.00102988     -4461.2859888181 -1.29E-01
     6 OT DIIS     0.15E+00    4.1     0.00060664     -4461.3239311504 -3.79E-02
     7 OT DIIS     0.15E+00    4.0     0.00038380     -4461.3372628974 -1.33E-02
     8 OT DIIS     0.15E+00    3.9     0.00026350     -4461.3448656430 -7.60E-03
     9 OT DIIS     0.15E+00    4.1     0.00018548     -4461.3499546245 -5.09E-03
    10 OT DIIS     0.15E+00    4.2     0.00015670     -4461.3534900528 -3.54E-03
    11 OT DIIS     0.15E+00    4.2     0.00013397     -4461.3552745201 -1.78E-03
    12 OT DIIS     0.15E+00    4.1     0.00010518     -4461.3585962848 -3.32E-03
    13 OT DIIS     0.15E+00    3.9     0.00012944     -4461.3595024333 -9.06E-04
    14 OT DIIS     0.15E+00    4.2     0.00011040     -4461.3610419398 -1.54E-03
    15 OT DIIS     0.15E+00    4.1     0.00009937     -4461.3620403686 -9.98E-04
    16 OT DIIS     0.15E+00    4.1     0.00008993     -4461.3630063833 -9.66E-04
    17 OT DIIS     0.15E+00    3.6     0.00007288     -4461.3638155493 -8.09E-04
    18 OT DIIS     0.15E+00    4.2     0.00007988     -4461.3642557567 -4.40E-04
    19 OT DIIS     0.15E+00    4.3     0.00007690     -4461.3648005303 -5.45E-04
    20 OT DIIS     0.15E+00    4.2     0.00005688     -4461.3650345800 -2.34E-04
    21 OT DIIS     0.15E+00    4.0     0.00006605     -4461.3654050407 -3.70E-04
    22 OT DIIS     0.15E+00    4.1     0.00005472     -4461.3656949666 -2.90E-04
    23 OT DIIS     0.15E+00    4.1     0.00005270     -4461.3659490888 -2.54E-04
    24 OT DIIS     0.15E+00    4.0     0.00004866     -4461.3661758793 -2.27E-04
    25 OT DIIS     0.15E+00    4.2     0.00004217     -4461.3664560209 -2.80E-04
    26 OT DIIS     0.15E+00    4.2     0.00004622     -4461.3667362274 -2.80E-04
    27 OT DIIS     0.15E+00    3.8     0.00004563     -4461.3671391720 -4.03E-04
    28 OT DIIS     0.15E+00    4.1     0.00004432     -4461.3671157055  2.35E-05
    29 OT DIIS     0.15E+00    4.2     0.00004759     -4461.3674838590 -3.68E-04
    30 OT DIIS     0.15E+00    3.9     0.00004347     -4461.3676609433 -1.77E-04
    31 OT DIIS     0.15E+00    4.0     0.00004443     -4461.3678486259 -1.88E-04
    32 OT DIIS     0.15E+00    4.0     0.00004060     -4461.3679726921 -1.24E-04
    33 OT DIIS     0.15E+00    4.2     0.00003478     -4461.3680828892 -1.10E-04
    34 OT DIIS     0.15E+00    4.1     0.00003473     -4461.3682438190 -1.61E-04
    35 OT DIIS     0.15E+00    4.4     0.00003234     -4461.3684753545 -2.32E-04
    36 OT DIIS     0.15E+00    4.2     0.00003340     -4461.3684420385  3.33E-05
    37 OT DIIS     0.15E+00    4.1     0.00003231     -4461.3686628950 -2.21E-04
    38 OT DIIS     0.15E+00    3.7     0.00003198     -4461.3687781845 -1.15E-04
    39 OT DIIS     0.15E+00    4.0     0.00003331     -4461.3689376600 -1.59E-04
    40 OT DIIS     0.15E+00    4.2     0.00003236     -4461.3690442811 -1.07E-04
    41 OT DIIS     0.15E+00    3.9     0.00003039     -4461.3691210569 -7.68E-05
    42 OT DIIS     0.15E+00    4.2     0.00003019     -4461.3692522698 -1.31E-04
    43 OT DIIS     0.15E+00    4.2     0.00002786     -4461.3694138158 -1.62E-04
    44 OT DIIS     0.15E+00    4.0     0.00002967     -4461.3693919052  2.19E-05
    45 OT DIIS     0.15E+00    3.9     0.00002702     -4461.3695179588 -1.26E-04
    46 OT DIIS     0.15E+00    3.9     0.00002597     -4461.3695825212 -6.46E-05
    47 OT DIIS     0.15E+00    4.1     0.00002545     -4461.3696838010 -1.01E-04
    48 OT DIIS     0.15E+00    4.0     0.00002491     -4461.3697603906 -7.66E-05
    49 OT DIIS     0.15E+00    4.1     0.00002416     -4461.3698167394 -5.63E-05
    50 OT DIIS     0.15E+00    4.1     0.00002400     -4461.3699170677 -1.00E-04

  Leaving inner SCF loop after reaching    50 steps.


  Electronic density on regular grids:      -1483.9999999891        0.0000000109
  Core density on regular grids:             1483.9999999310       -0.0000000690
  Total charge density on r-space grids:       -0.0000000581
  Total charge density g-space grids:          -0.0000000581

  Overlap energy of the core charge distribution:               0.00000964391730
  Self energy of the core charge distribution:             -10331.29031661960289
  Core Hamiltonian energy:                                   2687.13397366921436
  Hartree energy:                                            3972.01238192236633
  Exchange-correlation energy:                               -788.55431375357989
  Dispersion energy:                                           -0.67165193003448

  Total energy:                                             -4461.36991706771823

  outer SCF iter =    1 RMS gradient =   0.24E-04 energy =      -4461.3699170677

  ----------------------------------- OT ---------------------------------------
  Minimizer      : DIIS                : direct inversion
                                         in the iterative subspace
                                         using   7 DIIS vectors
                                         safer DIIS on
  Preconditioner : FULL_SINGLE         : diagonalization based
  Precond_solver : DEFAULT
  stepsize       :    0.15000000                  energy_gap     :    0.20000000
  eps_taylor     :   0.10000E-15                  max_taylor     :             4
  ----------------------------------- OT ---------------------------------------

  Step     Update method      Time    Convergence         Total energy    Change
  ------------------------------------------------------------------------------
     1 OT DIIS     0.15E+00   12.7     0.00002306     -4461.3700239585 -1.07E-04
     2 OT DIIS     0.15E+00    4.1     0.00005529     -4461.3700638020 -3.98E-05
     3 OT DIIS     0.15E+00    4.0     0.00001948     -4461.3701889541 -1.25E-04
     4 OT DIIS     0.15E+00    3.8     0.00001884     -4461.3702393167 -5.04E-05
     5 OT DIIS     0.15E+00    3.6     0.00002451     -4461.3706456347 -4.06E-04
     6 OT DIIS     0.15E+00    4.0     0.00002150     -4461.3717435237 -1.10E-03
     7 OT DIIS     0.15E+00    3.8     0.00001397     -4461.3719798624 -2.36E-04
     8 OT DIIS     0.15E+00    3.6     0.00001361     -4461.3720458460 -6.60E-05
     9 OT DIIS     0.15E+00    4.0     0.00001305     -4461.3722170233 -1.71E-04
    10 OT DIIS     0.15E+00    3.9     0.00001285     -4461.3722945145 -7.75E-05
    11 OT DIIS     0.15E+00    3.9     0.00001245     -4461.3723671791 -7.27E-05
    12 OT DIIS     0.15E+00    4.2     0.00001199     -4461.3725551645 -1.88E-04
    13 OT DIIS     0.15E+00    4.0     0.00001150     -4461.3727334781 -1.78E-04
    14 OT DIIS     0.15E+00    3.8     0.00001142     -4461.3728408648 -1.07E-04
    15 OT DIIS     0.15E+00    4.1     0.00001117     -4461.3730047199 -1.64E-04
    16 OT DIIS     0.15E+00    3.9     0.00001163     -4461.3730909088 -8.62E-05
    17 OT DIIS     0.15E+00    4.1     0.00001108     -4461.3732317520 -1.41E-04
    18 OT DIIS     0.15E+00    4.1     0.00001077     -4461.3733794915 -1.48E-04
    19 OT DIIS     0.15E+00    3.9     0.00001108     -4461.3734629448 -8.35E-05
    20 OT DIIS     0.15E+00    3.6     0.00001020     -4461.3735752872 -1.12E-04
    21 OT DIIS     0.15E+00    4.2     0.00001051     -4461.3736934187 -1.18E-04
    22 OT DIIS     0.15E+00    3.9     0.00001023     -4461.3738166984 -1.23E-04
    23 OT DIIS     0.15E+00    3.9     0.00000995     -4461.3739537973 -1.37E-04

  *** SCF run converged in    23 steps ***


  Electronic density on regular grids:      -1483.9999999892        0.0000000108
  Core density on regular grids:             1483.9999999310       -0.0000000690
  Total charge density on r-space grids:       -0.0000000581
  Total charge density g-space grids:          -0.0000000581

  Overlap energy of the core charge distribution:               0.00000964391730
  Self energy of the core charge distribution:             -10331.29031661960289
  Core Hamiltonian energy:                                   2687.13105734985129
  Hartree energy:                                            3972.00960780508103
  Exchange-correlation energy:                               -788.55266004650002
  Dispersion energy:                                           -0.67165193003448

  Total energy:                                             -4461.37395379728696

  outer SCF iter =    2 RMS gradient =   0.10E-04 energy =      -4461.3739537973
  outer SCF loop converged in   2 iterations or   73 steps


 ENERGY| Total FORCE_EVAL ( QS ) energy [a.u.]:            -4461.374066485496769

 --------  Informations at step =     2 ------------
  Optimization Method        =                 BFGS
  Total Energy               =     -4461.3740664855
  Real energy change         =        -1.3077374667
  Predicted change in energy =        -1.3098525781
  Scaling factor             =         0.2763519955
  Step size                  =         0.4724315332
  Trust radius               =         0.4724315332
  Decrease in energy         =                  YES
  Used time                  =              312.399

  Convergence check :
  Max. step size             =         0.4724315332
  Conv. limit for step size  =         0.0030000000
  Convergence in step size   =                   NO
  RMS step size              =         0.0795909114
  Conv. limit for RMS step   =         0.0015000000
  Convergence in RMS step    =                   NO
  Max. gradient              =         0.2416500242
  Conv. limit for gradients  =         0.0004500000
  Conv. for gradients        =                   NO
  RMS gradient               =         0.0406342329
  Conv. limit for RMS grad.  =         0.0003000000
  Conv. for gradients        =                   NO
 ---------------------------------------------------

 --------------------------
 OPTIMIZATION STEP:      3
 --------------------------

  Step is scaled; Scaling factor =  0.16515

 Number of electrons:                                                       1484
 Number of occupied orbitals:                                                742
 Number of molecular orbitals:                                               742

 Number of orbital functions:                                               3388
 Number of independent orbital functions:                                   3388

 Extrapolation method: ASPC


 SCF WAVEFUNCTION OPTIMIZATION

  ----------------------------------- OT ---------------------------------------
  Minimizer      : DIIS                : direct inversion
                                         in the iterative subspace
                                         using   7 DIIS vectors
                                         safer DIIS on
  Preconditioner : FULL_SINGLE         : diagonalization based
  Precond_solver : DEFAULT
  stepsize       :    0.15000000                  energy_gap     :    0.20000000
  eps_taylor     :   0.10000E-15                  max_taylor     :             4
  ----------------------------------- OT ---------------------------------------

  Step     Update method      Time    Convergence         Total energy    Change
  ------------------------------------------------------------------------------
     1 OT DIIS     0.15E+00    7.6     0.00342017     -4460.9918688025 -4.46E+03
     2 OT DIIS     0.15E+00    4.3     0.00915800     -4457.4425717106  3.55E+00
     3 OT DIIS     0.15E+00    4.0     0.00299533     -4461.3825986367 -3.94E+00
     4 OT DIIS     0.15E+00    4.0     0.00182048     -4461.7305463703 -3.48E-01
     5 OT DIIS     0.15E+00    4.4     0.00094367     -4461.8648865207 -1.34E-01
     6 OT DIIS     0.15E+00    4.1     0.00069165     -4461.9011265893 -3.62E-02
     7 OT DIIS     0.15E+00    4.1     0.00051908     -4461.9185613729 -1.74E-02
     8 OT DIIS     0.15E+00    4.1     0.00039717     -4461.9298628508 -1.13E-02
     9 OT DIIS     0.15E+00    4.0     0.00022476     -4461.9369632001 -7.10E-03
    10 OT DIIS     0.15E+00    4.0     0.00027229     -4461.9388960042 -1.93E-03
    11 OT DIIS     0.15E+00    4.2     0.00013450     -4461.9426939323 -3.80E-03
    12 OT DIIS     0.15E+00    3.7     0.00018172     -4461.9430676744 -3.74E-04
    13 OT DIIS     0.15E+00    4.4     0.00010783     -4461.9444805894 -1.41E-03
    14 OT DIIS     0.15E+00    3.8     0.00010716     -4461.9452228726 -7.42E-04
    15 OT DIIS     0.15E+00    4.0     0.00009668     -4461.9460097228 -7.87E-04
    16 OT DIIS     0.15E+00    4.0     0.00008843     -4461.9464524596 -4.43E-04
    17 OT DIIS     0.15E+00    4.2     0.00007411     -4461.9467664879 -3.14E-04
    18 OT DIIS     0.15E+00    4.2     0.00007803     -4461.9476066205 -8.40E-04
    19 OT DIIS     0.15E+00    4.1     0.00007041     -4461.9474126286  1.94E-04
    20 OT DIIS     0.15E+00    4.4     0.00006714     -4461.9479993289 -5.87E-04
    21 OT DIIS     0.15E+00    4.1     0.00005976     -4461.9480499485 -5.06E-05
    22 OT DIIS     0.15E+00    4.1     0.00005159     -4461.9483979851 -3.48E-04
    23 OT DIIS     0.15E+00    4.3     0.00004856     -4461.9486724141 -2.74E-04
    24 OT DIIS     0.15E+00    4.1     0.00004918     -4461.9487997015 -1.27E-04
    25 OT DIIS     0.15E+00    4.0     0.00004216     -4461.9489452017 -1.46E-04
    26 OT DIIS     0.15E+00    4.3     0.00004095     -4461.9492981274 -3.53E-04
    27 OT DIIS     0.15E+00    4.2     0.00004731     -4461.9492327916  6.53E-05
    28 OT DIIS     0.15E+00    4.1     0.00004043     -4461.9495471043 -3.14E-04
    29 OT DIIS     0.15E+00    4.0     0.00004302     -4461.9495353144  1.18E-05
    30 OT DIIS     0.15E+00    4.0     0.00003463     -4461.9497224267 -1.87E-04
    31 OT DIIS     0.15E+00    3.9     0.00003294     -4461.9498578978 -1.35E-04
    32 OT DIIS     0.15E+00    3.8     0.00003322     -4461.9499406824 -8.28E-05
    33 OT DIIS     0.15E+00    4.2     0.00003016     -4461.9500161390 -7.55E-05
    34 OT DIIS     0.15E+00    4.0     0.00002746     -4461.9501540363 -1.38E-04
    35 OT DIIS     0.15E+00    4.0     0.00003141     -4461.9501968940 -4.29E-05
    36 OT DIIS     0.15E+00    4.3     0.00002737     -4461.9503266251 -1.30E-04
    37 OT DIIS     0.15E+00    4.1     0.00003044     -4461.9503632525 -3.66E-05
    38 OT DIIS     0.15E+00    4.0     0.00002568     -4461.9504615700 -9.83E-05
    39 OT DIIS     0.15E+00    4.0     0.00002552     -4461.9505404286 -7.89E-05
    40 OT DIIS     0.15E+00    4.0     0.00002525     -4461.9506129614 -7.25E-05
    41 OT DIIS     0.15E+00    4.0     0.00002474     -4461.9506812433 -6.83E-05
    42 OT DIIS     0.15E+00    4.1     0.00002227     -4461.9507213182 -4.01E-05
    43 OT DIIS     0.15E+00    3.6     0.00002420     -4461.9508128158 -9.15E-05
    44 OT DIIS     0.15E+00    3.9     0.00002185     -4461.9508509086 -3.81E-05
    45 OT DIIS     0.15E+00    4.1     0.00002331     -4461.9509102328 -5.93E-05
    46 OT DIIS     0.15E+00    4.2     0.00002071     -4461.9509603925 -5.02E-05
    47 OT DIIS     0.15E+00    4.0     0.00002067     -4461.9510106137 -5.02E-05
    48 OT DIIS     0.15E+00    4.3     0.00002026     -4461.9510831725 -7.26E-05
    49 OT DIIS     0.15E+00    4.2     0.00002074     -4461.9511565284 -7.34E-05
    50 OT DIIS     0.15E+00    3.9     0.00001951     -4461.9511492283  7.30E-06

  Leaving inner SCF loop after reaching    50 steps.


  Electronic density on regular grids:      -1483.9999999896        0.0000000104
  Core density on regular grids:             1483.9999999309       -0.0000000691
  Total charge density on r-space grids:       -0.0000000587
  Total charge density g-space grids:          -0.0000000587

  Overlap energy of the core charge distribution:               0.00000583362710
  Self energy of the core charge distribution:             -10331.29031661960289
  Core Hamiltonian energy:                                   2685.75297315285661
  Hartree energy:                                            3972.68208020127804
  Exchange-correlation energy:                               -788.42374736801855
  Dispersion energy:                                           -0.67214442847239

  Total energy:                                             -4461.95114922833272

  outer SCF iter =    1 RMS gradient =   0.20E-04 energy =      -4461.9511492283

  ----------------------------------- OT ---------------------------------------
  Minimizer      : DIIS                : direct inversion
                                         in the iterative subspace
                                         using   7 DIIS vectors
                                         safer DIIS on
  Preconditioner : FULL_SINGLE         : diagonalization based
  Precond_solver : DEFAULT
  stepsize       :    0.15000000                  energy_gap     :    0.20000000
  eps_taylor     :   0.10000E-15                  max_taylor     :             4
  ----------------------------------- OT ---------------------------------------

  Step     Update method      Time    Convergence         Total energy    Change
  ------------------------------------------------------------------------------
     1 OT DIIS     0.15E+00   12.4     0.00001972     -4461.9512634297 -1.14E-04
     2 OT DIIS     0.15E+00    3.7     0.00004982     -4461.9512791299 -1.57E-05
     3 OT DIIS     0.15E+00    4.3     0.00001698     -4461.9513771125 -9.80E-05
     4 OT DIIS     0.15E+00    4.2     0.00001556     -4461.9514065219 -2.94E-05
     5 OT DIIS     0.15E+00    4.1     0.00001725     -4461.9515425429 -1.36E-04
     6 OT DIIS     0.15E+00    4.2     0.00001665     -4461.9521321674 -5.90E-04
     7 OT DIIS     0.15E+00    3.9     0.00001369     -4461.9524606421 -3.28E-04
     8 OT DIIS     0.15E+00    3.9     0.00001264     -4461.9525201189 -5.95E-05
     9 OT DIIS     0.15E+00    4.1     0.00001311     -4461.9526514884 -1.31E-04
    10 OT DIIS     0.15E+00    3.9     0.00001278     -4461.9527501799 -9.87E-05
    11 OT DIIS     0.15E+00    4.1     0.00001247     -4461.9528116260 -6.14E-05
    12 OT DIIS     0.15E+00    4.3     0.00001222     -4461.9529394819 -1.28E-04
    13 OT DIIS     0.15E+00    4.0     0.00001202     -4461.9530963034 -1.57E-04
    14 OT DIIS     0.15E+00    4.1     0.00001196     -4461.9531988915 -1.03E-04
    15 OT DIIS     0.15E+00    4.0     0.00001226     -4461.9532808520 -8.20E-05
    16 OT DIIS     0.15E+00    4.0     0.00001192     -4461.9534252160 -1.44E-04
    17 OT DIIS     0.15E+00    3.9     0.00001200     -4461.9535215920 -9.64E-05
    18 OT DIIS     0.15E+00    3.8     0.00001186     -4461.9537192642 -1.98E-04
    19 OT DIIS     0.15E+00    4.1     0.00001235     -4461.9538787448 -1.59E-04
    20 OT DIIS     0.15E+00    3.7     0.00001222     -4461.9540425218 -1.64E-04
    21 OT DIIS     0.15E+00    4.2     0.00001261     -4461.9541619419 -1.19E-04
    22 OT SD       0.15E+00    4.0     0.00001274     -4461.9544002236 -2.38E-04
    23 OT DIIS     0.15E+00    3.8     0.00002347     -4461.9544278556 -2.76E-05
    24 OT DIIS     0.15E+00    4.0     0.00001338     -4461.9546771627 -2.49E-04
    25 OT DIIS     0.15E+00    3.8     0.00001422     -4461.9549134029 -2.36E-04
    26 OT DIIS     0.15E+00    4.2     0.00001365     -4461.9550430660 -1.30E-04
    27 OT SD       0.15E+00    3.9     0.00001365     -4461.9550379520  5.11E-06
    28 OT DIIS     0.15E+00    3.8     0.00004325     -4461.9550142085  2.37E-05
    29 OT SD       0.15E+00    3.8     0.00001161     -4461.9553021646 -2.88E-04
    30 OT DIIS     0.15E+00    4.4     0.00002238     -4461.9553186178 -1.65E-05
    31 OT DIIS     0.15E+00    3.7     0.00001000     -4461.9553657800 -4.72E-05

  *** SCF run converged in    31 steps ***


  Electronic density on regular grids:      -1483.9999999896        0.0000000104
  Core density on regular grids:             1483.9999999309       -0.0000000691
  Total charge density on r-space grids:       -0.0000000587
  Total charge density g-space grids:          -0.0000000587

  Overlap energy of the core charge distribution:               0.00000583362710
  Self energy of the core charge distribution:             -10331.29031661960289
  Core Hamiltonian energy:                                   2685.73838104896140
  Hartree energy:                                            3972.69160492669607
  Exchange-correlation energy:                               -788.42289654123374
  Dispersion energy:                                           -0.67214442847239

  Total energy:                                             -4461.95536578002520

  outer SCF iter =    2 RMS gradient =   0.10E-04 energy =      -4461.9553657800
  outer SCF loop converged in   2 iterations or   81 steps


 ENERGY| Total FORCE_EVAL ( QS ) energy [a.u.]:            -4461.955556769506984

 --------  Informations at step =     3 ------------
  Optimization Method        =                 BFGS
  Total Energy               =     -4461.9555567695
  Real energy change         =        -0.5814902840
  Predicted change in energy =        -0.6525046346
  Scaling factor             =         0.1651481404
  Step size                  =         0.4724315332
  Trust radius               =         0.4724315332
  Decrease in energy         =                  YES
  Used time                  =              347.665

  Convergence check :
  Max. step size             =         0.4724315332
  Conv. limit for step size  =         0.0030000000
  Convergence in step size   =                   NO
  RMS step size              =         0.0544779125
  Conv. limit for RMS step   =         0.0015000000
  Convergence in RMS step    =                   NO
  Max. gradient              =         0.1967209483
  Conv. limit for gradients  =         0.0004500000
  Conv. for gradients        =                   NO
  RMS gradient               =         0.0294931560
  Conv. limit for RMS grad.  =         0.0003000000
  Conv. for gradients        =                   NO
 ---------------------------------------------------

 --------------------------
 OPTIMIZATION STEP:      4
 --------------------------

  Step is scaled; Scaling factor =  0.35003

 Number of electrons:                                                       1484
 Number of occupied orbitals:                                                742
 Number of molecular orbitals:                                               742

 Number of orbital functions:                                               3388
 Number of independent orbital functions:                                   3388

 Extrapolation method: ASPC


 SCF WAVEFUNCTION OPTIMIZATION

  ----------------------------------- OT ---------------------------------------
  Minimizer      : DIIS                : direct inversion
                                         in the iterative subspace
                                         using   7 DIIS vectors
                                         safer DIIS on
  Preconditioner : FULL_SINGLE         : diagonalization based
  Precond_solver : DEFAULT
  stepsize       :    0.15000000                  energy_gap     :    0.20000000
  eps_taylor     :   0.10000E-15                  max_taylor     :             4
  ----------------------------------- OT ---------------------------------------

  Step     Update method      Time    Convergence         Total energy    Change
  ------------------------------------------------------------------------------
     1 OT DIIS     0.15E+00    7.7     0.00269743     -4461.5753378178 -4.46E+03
     2 OT DIIS     0.15E+00    4.1     0.00705363     -4460.5834104347  9.92E-01
     3 OT DIIS     0.15E+00    4.3     0.00277458     -4462.1681741397 -1.58E+00
     4 OT DIIS     0.15E+00    4.1     0.00193927     -4462.3401350111 -1.72E-01
     5 OT DIIS     0.15E+00    4.0     0.00110678     -4462.4516272445 -1.11E-01
     6 OT DIIS     0.15E+00    4.1     0.00059154     -4462.4958843660 -4.43E-02
     7 OT DIIS     0.15E+00    4.1     0.00042261     -4462.5099721664 -1.41E-02
     8 OT DIIS     0.15E+00    4.2     0.00030628     -4462.5192019878 -9.23E-03
     9 OT DIIS     0.15E+00    4.1     0.00022575     -4462.5249387863 -5.74E-03
    10 OT DIIS     0.15E+00    4.4     0.00017276     -4462.5279100082 -2.97E-03
    11 OT DIIS     0.15E+00    4.2     0.00016804     -4462.5312146944 -3.30E-03
    12 OT DIIS     0.15E+00    4.1     0.00016494     -4462.5323742748 -1.16E-03
    13 OT DIIS     0.15E+00    4.3     0.00013027     -4462.5340803304 -1.71E-03
    14 OT DIIS     0.15E+00    4.2     0.00012899     -4462.5348468447 -7.67E-04
    15 OT DIIS     0.15E+00    4.0     0.00010091     -4462.5360155506 -1.17E-03
    16 OT DIIS     0.15E+00    4.2     0.00009430     -4462.5366432936 -6.28E-04
    17 OT DIIS     0.15E+00    4.1     0.00008244     -4462.5371888143 -5.46E-04
    18 OT DIIS     0.15E+00    4.2     0.00007209     -4462.5375721465 -3.83E-04
    19 OT DIIS     0.15E+00    3.9     0.00006366     -4462.5382093026 -6.37E-04
    20 OT DIIS     0.15E+00    4.2     0.00006979     -4462.5384375965 -2.28E-04
    21 OT DIIS     0.15E+00    4.0     0.00006046     -4462.5386701480 -2.33E-04
    22 OT DIIS     0.15E+00    4.3     0.00005671     -4462.5391422155 -4.72E-04
    23 OT DIIS     0.15E+00    4.2     0.00005228     -4462.5393605422 -2.18E-04
    24 OT DIIS     0.15E+00    4.1     0.00005047     -4462.5397278758 -3.67E-04
    25 OT DIIS     0.15E+00    4.3     0.00004948     -4462.5399529383 -2.25E-04
    26 OT DIIS     0.15E+00    4.0     0.00004731     -4462.5402286072 -2.76E-04
    27 OT DIIS     0.15E+00    4.2     0.00004270     -4462.5405190419 -2.90E-04
    28 OT DIIS     0.15E+00    4.2     0.00004759     -4462.5407461163 -2.27E-04
    29 OT DIIS     0.15E+00    4.4     0.00004521     -4462.5407974364 -5.13E-05
    30 OT DIIS     0.15E+00    4.3     0.00004034     -4462.5411204006 -3.23E-04
    31 OT DIIS     0.15E+00    4.2     0.00003838     -4462.5411805687 -6.02E-05
    32 OT DIIS     0.15E+00    4.2     0.00003584     -4462.5413836073 -2.03E-04
    33 OT DIIS     0.15E+00    4.2     0.00003487     -4462.5415121724 -1.29E-04
    34 OT DIIS     0.15E+00    4.2     0.00003367     -4462.5416881888 -1.76E-04
    35 OT DIIS     0.15E+00    4.3     0.00003146     -4462.5418109287 -1.23E-04
    36 OT DIIS     0.15E+00    4.2     0.00003306     -4462.5420125232 -2.02E-04
    37 OT DIIS     0.15E+00    3.8     0.00003454     -4462.5420750601 -6.25E-05
    38 OT DIIS     0.15E+00    4.0     0.00003139     -4462.5422878587 -2.13E-04
    39 OT DIIS     0.15E+00    4.1     0.00003172     -4462.5423609855 -7.31E-05
    40 OT DIIS     0.15E+00    4.2     0.00003040     -4462.5425086664 -1.48E-04
    41 OT DIIS     0.15E+00    4.0     0.00002978     -4462.5426132943 -1.05E-04
    42 OT DIIS     0.15E+00    4.3     0.00002882     -4462.5427504385 -1.37E-04
    43 OT DIIS     0.15E+00    4.2     0.00002715     -4462.5427903097 -3.99E-05
    44 OT DIIS     0.15E+00    4.2     0.00002658     -4462.5429331126 -1.43E-04
    45 OT DIIS     0.15E+00    4.2     0.00002771     -4462.5430007964 -6.77E-05
    46 OT DIIS     0.15E+00    4.1     0.00002540     -4462.5431090120 -1.08E-04
    47 OT DIIS     0.15E+00    4.0     0.00002555     -4462.5431900705 -8.11E-05
    48 OT DIIS     0.15E+00    4.2     0.00002499     -4462.5432925280 -1.02E-04
    49 OT DIIS     0.15E+00    4.3     0.00002506     -4462.5433988450 -1.06E-04
    50 OT DIIS     0.15E+00    3.7     0.00002497     -4462.5435187557 -1.20E-04

  Leaving inner SCF loop after reaching    50 steps.


  Electronic density on regular grids:      -1483.9999999894        0.0000000106
  Core density on regular grids:             1483.9999999309       -0.0000000691
  Total charge density on r-space grids:       -0.0000000584
  Total charge density g-space grids:          -0.0000000584

  Overlap energy of the core charge distribution:               0.00000357691756
  Self energy of the core charge distribution:             -10331.29031661960289
  Core Hamiltonian energy:                                   2683.92653753002833
  Hartree energy:                                            3973.60862303267459
  Exchange-correlation energy:                               -788.11770259415982
  Dispersion energy:                                           -0.67066368159838

  Total energy:                                             -4462.54351875574048

  outer SCF iter =    1 RMS gradient =   0.25E-04 energy =      -4462.5435187557

  ----------------------------------- OT ---------------------------------------
  Minimizer      : DIIS                : direct inversion
                                         in the iterative subspace
                                         using   7 DIIS vectors
                                         safer DIIS on
  Preconditioner : FULL_SINGLE         : diagonalization based
  Precond_solver : DEFAULT
  stepsize       :    0.15000000                  energy_gap     :    0.20000000
  eps_taylor     :   0.10000E-15                  max_taylor     :             4
  ----------------------------------- OT ---------------------------------------

  Step     Update method      Time    Convergence         Total energy    Change
  ------------------------------------------------------------------------------
     1 OT DIIS     0.15E+00   11.9     0.00002424     -4462.5435483705 -2.96E-05
     2 OT DIIS     0.15E+00    4.1     0.00005310     -4462.5436237090 -7.53E-05
     3 OT DIIS     0.15E+00    4.2     0.00002161     -4462.5437416553 -1.18E-04
     4 OT DIIS     0.15E+00    3.7     0.00002029     -4462.5438025881 -6.09E-05
     5 OT DIIS     0.15E+00    3.9     0.00002204     -4462.5440135947 -2.11E-04
     6 OT DIIS     0.15E+00    4.5     0.00002184     -4462.5448094930 -7.96E-04
     7 OT DIIS     0.15E+00    4.3     0.00001860     -4462.5455941036 -7.85E-04
     8 OT DIIS     0.15E+00    3.9     0.00001583     -4462.5457014247 -1.07E-04
     9 OT DIIS     0.15E+00    4.0     0.00001778     -4462.5459635422 -2.62E-04
    10 OT DIIS     0.15E+00    4.1     0.00001643     -4462.5462047661 -2.41E-04
    11 OT DIIS     0.15E+00    4.0     0.00001536     -4462.5463794850 -1.75E-04
    12 OT DIIS     0.15E+00    4.2     0.00001696     -4462.5466838563 -3.04E-04
    13 OT DIIS     0.15E+00    4.0     0.00001677     -4462.5469049617 -2.21E-04
    14 OT DIIS     0.15E+00    4.2     0.00001390     -4462.5470293663 -1.24E-04
    15 OT DIIS     0.15E+00    3.9     0.00001701     -4462.5470632130 -3.38E-05
    16 OT DIIS     0.15E+00    3.9     0.00001504     -4462.5473547346 -2.92E-04
    17 OT DIIS     0.15E+00    4.1     0.00001423     -4462.5474507632 -9.60E-05
    18 OT DIIS     0.15E+00    4.5     0.00001269     -4462.5476854464 -2.35E-04
    19 OT DIIS     0.15E+00    4.0     0.00001562     -4462.5478157176 -1.30E-04
    20 OT DIIS     0.15E+00    4.2     0.00001176     -4462.5478763730 -6.07E-05
    21 OT DIIS     0.15E+00    4.2     0.00001245     -4462.5479534163 -7.70E-05
    22 OT DIIS     0.15E+00    4.1     0.00000907     -4462.5480026703 -4.93E-05

  *** SCF run converged in    22 steps ***


  Electronic density on regular grids:      -1483.9999999894        0.0000000106
  Core density on regular grids:             1483.9999999309       -0.0000000691
  Total charge density on r-space grids:       -0.0000000585
  Total charge density g-space grids:          -0.0000000585

  Overlap energy of the core charge distribution:               0.00000357691756
  Self energy of the core charge distribution:             -10331.29031661960289
  Core Hamiltonian energy:                                   2683.92342761164855
  Hartree energy:                                            3973.60880558724966
  Exchange-correlation energy:                               -788.11925914494907
  Dispersion energy:                                           -0.67066368159838

  Total energy:                                             -4462.54800267033443

  outer SCF iter =    2 RMS gradient =   0.91E-05 energy =      -4462.5480026703
  outer SCF loop converged in   2 iterations or   72 steps


 ENERGY| Total FORCE_EVAL ( QS ) energy [a.u.]:            -4462.548135564330551

 --------  Informations at step =     4 ------------
  Optimization Method        =                 BFGS
  Total Energy               =     -4462.5481355643
  Real energy change         =        -0.5925787948
  Predicted change in energy =        -0.6926083810
  Scaling factor             =         0.3500267165
  Step size                  =         0.4724315332
  Trust radius               =         0.4724315332
  Decrease in energy         =                  YES
  Used time                  =              316.820

  Convergence check :
  Max. step size             =         0.4724315332
  Conv. limit for step size  =         0.0030000000
  Convergence in step size   =                   NO
  RMS step size              =         0.0848471030
  Conv. limit for RMS step   =         0.0015000000
  Convergence in RMS step    =                   NO
  Max. gradient              =         0.0904185946
  Conv. limit for gradients  =         0.0004500000
  Conv. for gradients        =                   NO
  RMS gradient               =         0.0175032768
  Conv. limit for RMS grad.  =         0.0003000000
  Conv. for gradients        =                   NO
 ---------------------------------------------------

 --------------------------
 OPTIMIZATION STEP:      5
 --------------------------

  Step is scaled; Scaling factor =  0.54630

 Number of electrons:                                                       1484
 Number of occupied orbitals:                                                742
 Number of molecular orbitals:                                               742

 Number of orbital functions:                                               3388
 Number of independent orbital functions:                                   3388

 Extrapolation method: ASPC


 SCF WAVEFUNCTION OPTIMIZATION

  ----------------------------------- OT ---------------------------------------
  Minimizer      : DIIS                : direct inversion
                                         in the iterative subspace
                                         using   7 DIIS vectors
                                         safer DIIS on
  Preconditioner : FULL_SINGLE         : diagonalization based
  Precond_solver : DEFAULT
  stepsize       :    0.15000000                  energy_gap     :    0.20000000
  eps_taylor     :   0.10000E-15                  max_taylor     :             4
  ----------------------------------- OT ---------------------------------------

  Step     Update method      Time    Convergence         Total energy    Change
  ------------------------------------------------------------------------------
     1 OT DIIS     0.15E+00    7.8     0.00384519     -4461.1983208318 -4.46E+03
     2 OT DIIS     0.15E+00    4.1     0.00987311     -4458.0899280375  3.11E+00
     3 OT DIIS     0.15E+00    4.3     0.00290164     -4462.3510907922 -4.26E+00
     4 OT DIIS     0.15E+00    4.3     0.00273978     -4462.4765181323 -1.25E-01
     5 OT DIIS     0.15E+00    4.2     0.00111879     -4462.7270430619 -2.51E-01
     6 OT DIIS     0.15E+00    3.8     0.00073474     -4462.7748694744 -4.78E-02
     7 OT DIIS     0.15E+00    4.1     0.00055009     -4462.7943372116 -1.95E-02
     8 OT DIIS     0.15E+00    4.3     0.00033288     -4462.8091456280 -1.48E-02
     9 OT DIIS     0.15E+00    4.2     0.00024683     -4462.8157032733 -6.56E-03
    10 OT DIIS     0.15E+00    4.1     0.00019721     -4462.8205870746 -4.88E-03
    11 OT DIIS     0.15E+00    4.2     0.00014737     -4462.8241391756 -3.55E-03
    12 OT DIIS     0.15E+00    4.2     0.00015332     -4462.8258527789 -1.71E-03
    13 OT DIIS     0.15E+00    4.2     0.00013729     -4462.8271640843 -1.31E-03
    14 OT DIIS     0.15E+00    4.2     0.00012726     -4462.8282278539 -1.06E-03
    15 OT DIIS     0.15E+00    4.4     0.00009623     -4462.8292184493 -9.91E-04
    16 OT DIIS     0.15E+00    4.2     0.00008978     -4462.8296189918 -4.01E-04
    17 OT DIIS     0.15E+00    3.9     0.00007324     -4462.8303481518 -7.29E-04
    18 OT DIIS     0.15E+00    4.3     0.00007091     -4462.8307458566 -3.98E-04
    19 OT DIIS     0.15E+00    3.9     0.00006464     -4462.8310277532 -2.82E-04
    20 OT DIIS     0.15E+00    3.9     0.00005962     -4462.8313547389 -3.27E-04
    21 OT DIIS     0.15E+00    4.0     0.00005999     -4462.8316025751 -2.48E-04
    22 OT DIIS     0.15E+00    4.2     0.00005379     -4462.8319430274 -3.40E-04
    23 OT DIIS     0.15E+00    4.0     0.00004964     -4462.8321373180 -1.94E-04
    24 OT DIIS     0.15E+00    4.3     0.00004960     -4462.8323915178 -2.54E-04
    25 OT DIIS     0.15E+00    4.1     0.00004320     -4462.8327191110 -3.28E-04
    26 OT DIIS     0.15E+00    4.0     0.00004657     -4462.8329546096 -2.35E-04
    27 OT DIIS     0.15E+00    4.4     0.00004455     -4462.8331665294 -2.12E-04
    28 OT DIIS     0.15E+00    4.3     0.00004552     -4462.8333391594 -1.73E-04
    29 OT DIIS     0.15E+00    4.0     0.00004627     -4462.8334992824 -1.60E-04
    30 OT DIIS     0.15E+00    4.1     0.00004106     -4462.8336991037 -2.00E-04
    31 OT DIIS     0.15E+00    4.0     0.00003898     -4462.8337601114 -6.10E-05
    32 OT DIIS     0.15E+00    4.2     0.00003602     -4462.8339282949 -1.68E-04
    33 OT DIIS     0.15E+00    4.1     0.00003205     -4462.8340594172 -1.31E-04
    34 OT DIIS     0.15E+00    4.3     0.00003220     -4462.8342056330 -1.46E-04
    35 OT DIIS     0.15E+00    4.3     0.00003146     -4462.8343408538 -1.35E-04
    36 OT DIIS     0.15E+00    4.0     0.00003298     -4462.8344642066 -1.23E-04
    37 OT DIIS     0.15E+00    4.2     0.00003384     -4462.8345883709 -1.24E-04
    38 OT DIIS     0.15E+00    4.2     0.00003222     -4462.8347217079 -1.33E-04
    39 OT DIIS     0.15E+00    4.3     0.00003293     -4462.8347879018 -6.62E-05
    40 OT DIIS     0.15E+00    4.2     0.00003065     -4462.8349391465 -1.51E-04
    41 OT DIIS     0.15E+00    4.0     0.00002854     -4462.8350013083 -6.22E-05
    42 OT DIIS     0.15E+00    3.8     0.00002743     -4462.8350984985 -9.72E-05
    43 OT DIIS     0.15E+00    3.6     0.00002613     -4462.8351822619 -8.38E-05
    44 OT DIIS     0.15E+00    3.9     0.00002621     -4462.8352591173 -7.69E-05
    45 OT DIIS     0.15E+00    4.1     0.00002600     -4462.8353409155 -8.18E-05
    46 OT DIIS     0.15E+00    4.3     0.00002494     -4462.8354153374 -7.44E-05
    47 OT DIIS     0.15E+00    4.1     0.00002534     -4462.8354815558 -6.62E-05
    48 OT DIIS     0.15E+00    4.2     0.00002437     -4462.8355975844 -1.16E-04
    49 OT DIIS     0.15E+00    4.1     0.00002418     -4462.8356503609 -5.28E-05
    50 OT DIIS     0.15E+00    4.0     0.00002383     -4462.8357390931 -8.87E-05

  Leaving inner SCF loop after reaching    50 steps.


  Electronic density on regular grids:      -1483.9999999897        0.0000000103
  Core density on regular grids:             1483.9999999310       -0.0000000690
  Total charge density on r-space grids:       -0.0000000587
  Total charge density g-space grids:          -0.0000000587

  Overlap energy of the core charge distribution:               0.00000395348059
  Self energy of the core charge distribution:             -10331.29031661960289
  Core Hamiltonian energy:                                   2685.79253758514960
  Hartree energy:                                            3971.92176405741429
  Exchange-correlation energy:                               -788.58977619647351
  Dispersion energy:                                           -0.66995187305480

  Total energy:                                             -4462.83573909308598

  outer SCF iter =    1 RMS gradient =   0.24E-04 energy =      -4462.8357390931

  ----------------------------------- OT ---------------------------------------
  Minimizer      : DIIS                : direct inversion
                                         in the iterative subspace
                                         using   7 DIIS vectors
                                         safer DIIS on
  Preconditioner : FULL_SINGLE         : diagonalization based
  Precond_solver : DEFAULT
  stepsize       :    0.15000000                  energy_gap     :    0.20000000
  eps_taylor     :   0.10000E-15                  max_taylor     :             4
[...]
 flops   166 x    38 x    32        1037482916608       0.0%    100.0%      0.0%
 flops   847 x    64 x     6        1522254311424       0.0%    100.0%      0.0%
 flops    14 x    14 x    32        1588076220416       0.0%    100.0%      0.0%
 flops   166 x    38 x   121        2249991941120       0.0%    100.0%      0.0%
 flops   166 x    32 x    32        3494679298048       0.0%    100.0%      0.0%
 flops   192 x    38 x    32        3599940722688       0.0%    100.0%      0.0%
 flops    42 x    14 x    32        4601452498944       0.0%    100.0%      0.0%
 flops    14 x    42 x    32        4601452498944       0.0%    100.0%      0.0%
 flops    13 x    14 x    32        6412052378368       0.0%    100.0%      0.0%
 flops    14 x    32 x    14        6445908560896       0.0%    100.0%      0.0%
 flops    14 x    13 x    32        6549126263680       0.0%    100.0%      0.0%
 flops   166 x    32 x   121        7578920222720       0.0%    100.0%      0.0%
 flops   192 x    38 x   121        7807200952320       0.0%    100.0%      0.0%
 flops   847 x    38 x   121       11827583565952       0.0%    100.0%      0.0%
 flops   192 x    32 x    32       12126116118528       0.0%    100.0%      0.0%
 flops   847 x    38 x    32       12318983964672       0.0%    100.0%      0.0%
 flops    13 x    13 x    32       12872116559744       0.0%    100.0%      0.0%
 flops    42 x    42 x    32       14297370264576       0.0%    100.0%      0.0%
 flops   166 x    64 x    32       15726056841216       0.0%    100.0%      0.0%
 flops    42 x    32 x    14       19344286445568       0.0%    100.0%      0.0%
 flops    14 x    32 x    42       19344286445568       0.0%    100.0%      0.0%
 flops    42 x    13 x    32       20960182064640       0.0%    100.0%      0.0%
 flops    13 x    42 x    32       21041051566080       0.0%    100.0%      0.0%
 flops   192 x    32 x   121       26297940049920       0.0%    100.0%      0.0%
 flops    14 x    32 x    13       27244094620288       0.0%    100.0%      0.0%
 flops    13 x    32 x    14       27244094620288       0.0%    100.0%      0.0%
 flops   166 x    64 x   121       34105141002240       0.0%    100.0%      0.0%
 flops   847 x    32 x   121       39840281485312       0.0%    100.0%      0.0%
 flops   847 x    32 x    32       41495524933632       0.0%    100.0%      0.0%
 flops    13 x    32 x    13       53120825633408       0.0%    100.0%      0.0%
 flops   192 x    64 x    32       54567522533376       0.0%    100.0%      0.0%
 flops    42 x    32 x    42       58032859336704       0.0%    100.0%      0.0%
 flops    42 x    32 x    13       88285581121920       0.0%    100.0%      0.0%
 flops    13 x    32 x    42       88285581121920       0.0%    100.0%      0.0%
 flops   192 x    64 x   121      118340730224640       0.0%    100.0%      0.0%
 flops   847 x    64 x   121      179281266683904       0.0%    100.0%      0.0%
 flops   847 x    64 x    32      186729862201344       0.0%    100.0%      0.0%
 flops inhomo. stacks                           0       0.0%      0.0%      0.0%
 flops total                         1.245374E+15       0.0%    100.0%      0.0%
 flops max/rank                     26.824995E+12       0.0%    100.0%      0.0%
 matmuls inhomo. stacks                         0       0.0%      0.0%      0.0%
 matmuls total                        21944000664       0.0%    100.0%      0.0%
 number of processed stacks             936519408       0.0%    100.0%      0.0%
 average stack size                                     0.0      23.4       0.0
 marketing flops                     1.483057E+15
 -------------------------------------------------------------------------------
 # multiplications                         285800
 max memory usage/rank               1.274778E+09
 # max total images/rank                        7
 # max 3D layers                                1
 # MPI messages exchanged               752225600
 MPI messages size (bytes):
  total size                        92.354648E+12
  min size                           0.000000E+00
  max size                         819.896000E+03
  average size                     122.775203E+03
 MPI breakdown and total messages size (bytes):
             size <=      128            73122136                        0
       128 < size <=     8192            57683551             430284001728
      8192 < size <=    32768           158696601            2949295394688
     32768 < size <=   131072           230391888           12052714256576
    131072 < size <=  4194304           232331424           77792351808496
   4194304 < size <= 16777216                   0                        0
  16777216 < size                               0                        0
 -------------------------------------------------------------------------------

 *** WARNING in dbcsr_mm.F:294 :: Using a non-square number of MPI ranks ***
 *** might lead to poor performance. Used ranks: 56 Suggested: 49 121    ***

 -------------------------------------------------------------------------------
 -                                                                             -
 -                      DBCSR MESSAGE PASSING PERFORMANCE                      -
 -                                                                             -
 -------------------------------------------------------------------------------
 ROUTINE             CALLS      AVE VOLUME [Bytes]
 MP_Bcast               70                     12.
 MP_Allreduce      1534938                      8.
 MP_Alltoall        965298                  41589.
 MP_ISend         30224998                  61258.
 MP_IRecv         29838474                  60355.
 -------------------------------------------------------------------------------

 -------------------------------------------------------------------------------
 -                                                                             -
 -                                GRID STATISTICS                              -
 -                                                                             -
 -------------------------------------------------------------------------------
 LP    KERNEL             BACKEND                              COUNT     PERCENT
 4     collocate ortho    REF                              735751225      23.09%
 4     integrate ortho    REF                              724685038      22.75%
 6     collocate ortho    REF                              710110943      22.29%
 6     integrate ortho    REF                              699429795      21.95%
 8     collocate ortho    REF                              144848834       4.55%
 8     integrate ortho    REF                              142669844       4.48%
 7     integrate ortho    REF                               11066187       0.35%
 9     integrate ortho    REF                               10681148       0.34%
 0     collocate general  REF                                2206176       0.07%
 3     integrate general  REF                                2206176       0.07%
 11    integrate ortho    REF                                2178990       0.07%
 -------------------------------------------------------------------------------

 MEMORY| Estimated peak process memory [MiB]                                1216

 -------------------------------------------------------------------------------
 -                                                                             -
 -                         MESSAGE PASSING PERFORMANCE                         -
 -                                                                             -
 -------------------------------------------------------------------------------

 ROUTINE             CALLS      AVE VOLUME [Bytes]
 MP_Group                4
 MP_Bcast           273304                   3581.
 MP_Allreduce       705033                    386.
 MP_Sync             22904
 MP_Alltoall        257075               31071710.
 MP_SendRecv         44220                   3878.
 MP_ISendRecv      2939420                 214272.
 MP_Wait           4985568
 MP_comm_split       11251
 MP_ISend          1830764                 619863.
 MP_IRecv          1830764                 619863.
 MP_Recv             21218                 745711.
 -------------------------------------------------------------------------------


 -------------------------------------------------------------------------------
 -                                                                             -
 -                           R E F E R E N C E S                               -
 -                                                                             -
 -------------------------------------------------------------------------------
 
 CP2K version 9.1, the CP2K developers group (2021).
 CP2K is freely available from https://www.cp2k.org/ .

 Kuehne,Thomas D.; Iannuzzi,Marcella; Del Ben,Mauro;
 Rybkin,Vladimir V.; Seewald,Patrick; Stein,Frederick; Laino,Teodoro;
 Khaliullin,Rustam Z.; Schuett,Ole; Schiffmann,Florian; Golze,Dorothea;
 Wilhelm,Jan; Chulkov,Sergey; Bani-Hashemian,Mohammad Hossein;
 Weber,Valery; Borstnik,Urban; Taillefumier,Mathieu;
 Jakobovits,Alice Shoshana; Lazzaro,Alfio; Pabst,Hans; Mueller,Tiziano;
 Schade,Robert; Guidon,Manuel; Andermatt,Samuel; Holmberg,Nico;
 Schenter,Gregory K.; Hehn,Anna; Bussy,Augustin; Belleflamme,Fabian;
 Tabacchi,Gloria; Gloess,Andreas; Lass,Michael; Bethune,Iain;
 Mundy,Christopher J.; Plessl,Christian; Watkins,Matt;
 VandeVondele,Joost; Krack,Matthias; Hutter,Juerg. 
 The Journal of Chemical Physics, 152 (19), (2020). 
 CP2K: An electronic structure and molecular dynamics software package -
 Quickstep: Efficient and accurate electronic structure calculations.
 https://doi.org/10.1063/5.0007045

 Goerigk, Lars; Hansen, Andreas; Bauer, Christoph; Ehrlich, Stephan;
 Najibi, Asim; Grimme, Stefan. , 19 (48), (2017). 
 A look at the density functional theory zoo with the advanced GMTKN55 database
 for general main group thermochemistry, kinetics and noncovalent interactions.
 https://doi.org/10.1039/C7CP04913G

 Schuett, Ole; Messmer, Peter; Hutter, Juerg; VandeVondele, Joost. 
 Electronic Structure Calculations on Graphics Processing Units, John
 Wiley & Sons, Ltd, 173-190 (2016). 
 GPU-Accelerated Sparse Matrix-Matrix Multiplication for
 Linear Scaling Density Functional Theory.
 https://doi.org/10.1002/9781118670712.ch8

 Heinecke, A; Henry, G; Hutchinson, M; Pabst, H. 
 Proceedings of Intl. Supercomputing Conference, 981-991 (2016). 
 LIBXSMM: Accelerating Small Matrix Multiplications
 by Runtime Code Generation.
 https://doi.org/10.1109/SC.2016.83

 Borstnik, U; VandeVondele, J; Weber, V; Hutter, J. 
 PARALLEL COMPUTING, 40 (5-6), 47-58 (2014). 
 Sparse matrix multiplication: The distributed block-compressed sparse
 row library.
 https://doi.org/10.1016/j.parco.2014.03.012

 Hutter, J; Iannuzzi, M; Schiffmann, F; VandeVondele, J. 
 WIREs Comput Mol Sci., 4 (1), 15-25 (2014). 
 CP2K: atomistic simulations of condensed matter systems.
 https://doi.org/10.1002/wcms.1159

 Marek, A; Blum, V; Johanni, R; Havu, V; Lang, B; Auckenthaler, T;
 Heinecke, A; Bungartz, H; Lederer, H. 
 Journal of Physics: Condensed Matter, 26 (21), (2014). 
 The ELPA library: scalable parallel eigenvalue solutions for
 electronic structure
 theory and computational science.
 https://doi.org/10.1088/0953-8984/26/21/213201

 Grimme, S; Ehrlich, S; Goerigk, L. 
 JOURNAL OF COMPUTATIONAL CHEMISTRY, 32, 1456 (2011). 
 Effect of the damping function in dispersion corrected density functional theory.
 https://doi.org/10.1002/jcc.21759

 Grimme, S; Antony, J; Ehrlich, S; Krieg, H. 
 JOURNAL OF CHEMICAL PHYSICS, 132 (15), 154104 (2010). 
 A consistent and accurate ab initio parametrization of density
 functional dispersion correction (DFT-D) for the 94 elements H-Pu.
 https://doi.org/10.1063/1.3382344

 VandeVondele, J; Hutter, J. 
 JOURNAL OF CHEMICAL PHYSICS, 127 (11), 114105 (2007). 
 Gaussian basis sets for accurate calculations on molecular systems in
 gas and condensed phases.
 https://doi.org/10.1063/1.2770708

 Kuhne, TD; Krack, M; Mohamed, FR; Parrinello, M. 
 PHYSICAL REVIEW LETTERS, 98 (6), 066401 (2007). 
 Efficient and accurate Car-Parrinello-like approach to
 Born-Oppenheimer molecular dynamics.
 https://doi.org/10.1103/PhysRevLett.98.066401

 Krack, M. 
 THEORETICAL CHEMISTRY ACCOUNTS, 114 (1-3), 145-152 (2005). 
 Pseudopotentials for H to Kr optimized for gradient-corrected
 exchange-correlation functionals.
 https://doi.org/10.1007/s00214-005-0655-y

 VandeVondele, J; Krack, M; Mohamed, F; Parrinello, M; Chassaing, T;
 Hutter, J. COMPUTER PHYSICS COMMUNICATIONS, 167 (2), 103-128 (2005). 
 QUICKSTEP: Fast and accurate density functional calculations using a
 mixed Gaussian and plane waves approach.
 https://doi.org/10.1016/j.cpc.2004.12.014

 Frigo, M; Johnson, SG. 
 PROCEEDINGS OF THE IEEE, 93 (2), 216-231 (2005). 
 The design and implementation of FFTW3.
 https://doi.org/10.1109/JPROC.2004.840301

 Kolafa, J. 
 JOURNAL OF COMPUTATIONAL CHEMISTRY, 25 (3), 335-342 (2004). 
 Time-reversible always stable predictor-corrector method for
 molecular dynamics of polarizable molecules.
 https://doi.org/10.1002/jcc.10385

 VandeVondele, J; Hutter, J. 
 JOURNAL OF CHEMICAL PHYSICS, 118 (10), 4365-4369 (2003). 
 An efficient orbital transformation method for electronic structure
 calculations.
 https://doi.org/10.1063/1.1543154

 Hartwigsen, C; Goedecker, S; Hutter, J. 
 PHYSICAL REVIEW B, 58 (7), 3641-3662 (1998). 
 Relativistic separable dual-space Gaussian pseudopotentials from H to Rn.
 https://doi.org/10.1103/PhysRevB.58.3641

 Lippert, G; Hutter, J; Parrinello, M. 
 MOLECULAR PHYSICS, 92 (3), 477-487 (1997). 
 A hybrid Gaussian and plane wave density functional scheme.
 https://doi.org/10.1080/002689797170220

 Perdew, JP; Burke, K; Ernzerhof, M. 
 PHYSICAL REVIEW LETTERS, 77 (18), 3865-3868 (1996). 
 Generalized gradient approximation made simple.
 https://doi.org/10.1103/PhysRevLett.77.3865

 Goedecker, S; Teter, M; Hutter, J. 
 PHYSICAL REVIEW B, 54 (3), 1703-1710 (1996). 
 Separable dual-space Gaussian pseudopotentials.
 https://doi.org/10.1103/PhysRevB.54.1703


 -------------------------------------------------------------------------------
 -                                                                             -
 -                                T I M I N G                                  -
 -                                                                             -
 -------------------------------------------------------------------------------
 SUBROUTINE                       CALLS  ASD         SELF TIME        TOTAL TIME
                                MAXIMUM       AVERAGE  MAXIMUM  AVERAGE  MAXIMUM
 CP2K                                 1  1.0     0.08     0.10 72422.85 72423.04
 cp_geo_opt                           1  2.0     0.00     0.00 72422.06 72422.25
 geoopt_bfgs                          1  3.0     0.05     0.66 72422.06 72422.25
 cp_eval_at                         201  4.0     0.04     0.23 72384.69 72384.88
 qs_forces                          201  5.0     0.03     0.12 72384.43 72384.62
 qs_energies                        201  6.0     0.02     0.02 70596.59 70597.43
 scf_env_do_scf                     201  7.0     0.04     0.09 69962.58 69962.86
 scf_env_do_scf_inner_loop        13160  8.0     0.30     1.28 66160.23 66166.83
 rebuild_ks_matrix                13361 10.0     0.06     0.06 47251.16 47260.73
 qs_ks_build_kohn_sham_matrix     13361 11.0     2.12     2.37 47251.11 47260.68
 qs_ks_update_qs_env              13558  9.0     0.10     0.11 46139.14 46150.06
 pw_transfer                     254060 13.6    23.56    26.93 33832.14 35468.81
 fft_wrap_pw1pw2                 227338 14.7     4.47     5.12 33533.85 35166.53
 fft_wrap_pw1pw2_260             147172 15.8  1845.23  1909.68 31237.68 32808.62
 qs_vxc_create                    13361 12.0     0.41     0.51 29820.15 30001.82
 xc_vxc_pw_create                 13361 13.0   771.57   948.03 29819.74 30001.45
 fft3d_ps                        227338 16.7  8485.65  8926.27 28083.39 29663.56
 mp_alltoall_z22v                227338 18.7 16590.12 18758.80 16590.12 18758.80
 qs_rho_update_rho                13361  9.0     0.08     0.09 15745.72 15776.52
 calculate_rho_elec               13361 10.0    54.98    60.68 15745.64 15776.45
 xc_rho_set_and_dset_create       13361 14.0    68.59    77.92 13095.73 14121.93
 sum_up_and_integrate             13361 12.0    68.51    74.84 12815.40 12870.76
 integrate_v_rspace               13361 13.0     0.69     0.90 12746.85 12795.88
 yz_to_x                         107089 17.1  1132.25  1357.02 10665.11 12703.01
 density_rs2pw                    13361 11.0     1.10     1.35 11657.48 12020.48
 rs_pw_transfer                  107290 13.5     2.48     2.74 10755.30 11037.24
 x_to_yz                         120249 18.2  1861.11  2100.03  8918.37  9372.56
 potential_pw2rs                  13361 14.0     5.21     6.02  7880.02  7893.86
 qs_scf_new_mos                   13160  9.0     0.08     0.09  5815.35  5842.17
 qs_scf_loop_do_ot                13160 10.0     0.09     0.11  5815.27  5842.09
 mp_waitany                     1830764 15.5  5355.27  5774.46  5355.27  5774.46
 dbcsr_multiply_generic          285800 14.1    20.37    22.21  5571.46  5597.91
 ot_scf_mini                      13160 11.0     0.30     0.46  5449.11  5461.18
 rs_pw_transfer_RS2PW_260         13562 13.0   937.09  1041.73  4370.09  4651.37
 mp_waitall_1                   ******* 17.9  4209.59  4463.42  4209.59  4463.42
 xc_functional_eval               13361 15.0     0.15     0.23  3392.16  4335.19
 pbe_lda_eval                     13361 16.0  3392.01  4335.06  3392.01  4335.06
 init_scf_loop                      398  8.0     0.01     0.02  3789.54  3789.76
 grid_collocate_task_list         13361 11.0  3225.34  3698.27  3225.34  3698.27
 grid_integrate_task_list         13361 14.0  3303.18  3645.88  3303.18  3645.88
 multiply_cannon                 285800 15.1    26.35    29.01  3358.91  3479.51
 ot_mini                          13160 12.0     0.09     0.12  2993.20  3012.26
 multiply_cannon_loop            285800 16.1    56.76    59.21  2902.67  2969.19
 mp_sum_d                        370653 14.8  2294.99  2514.31  2294.99  2514.31
 rs_pw_transfer_PW2RS_260         13562 15.9  1250.78  1318.69  2269.35  2338.40
 prepare_preconditioner             398  9.0     0.00     0.00  2319.31  2320.23
 make_preconditioner                398 10.0     0.00     0.01  2319.30  2320.22
 make_full_single                   398 11.0     0.21     0.27  2216.96  2218.03
 mp_alltoall_d11v                208849 16.1  1919.84  2141.47  1919.84  2141.47
 pw_scatter_p                    120249 17.2  1960.71  2096.59  1960.71  2096.59
 qs_ot_get_derivative             13160 13.0     0.15     0.18  2081.04  2094.49
 multiply_cannon_metrocomm3     8002400 17.1    12.60    13.36  1776.49  1966.26
 rs_gather_matrices               13361 14.0     7.21     8.40  1551.38  1798.04
 fft_wrap_pw1pw2_90               26722 15.5    59.74    73.99  1586.31  1720.70
 pw_gather_p                     107089 16.1  1566.71  1626.55  1566.71  1626.55
 qs_ot_get_p                      13558 11.9     0.10     0.12  1456.21  1469.96
 -------------------------------------------------------------------------------

 The number of warnings for this run is : 2
 
 -------------------------------------------------------------------------------
  **** **** ******  **  PROGRAM ENDED AT                 2024-03-25 06:00:23.171
 ***** ** ***  *** **   PROGRAM RAN ON                               ibc11b02n02
 **    ****   ******    PROGRAM RAN BY                                     junli
 ***** **    ** ** **   PROGRAM PROCESS ID                                109348
  **** **  *******  **  PROGRAM STOPPED IN    /WORK/junli_work/libin/1_U28/3_try
