     196
 i =        1, E =     -4460.0663290188
  U         3.0338482396        5.6888174846       -3.7702748233
  U        -1.5798473277        6.1699450619       -3.2977391666
  U         3.5436403265        2.1786385601        5.9026959075
  U         0.0213805229       -0.0274942284       -7.1301961860
  U         0.4347915568       -3.9666093804       -5.6894251333
  U        -2.4794871528       -5.8066874284        3.4804288016
  U        -0.5836447155       -7.1761150537        0.0281261126
  U         6.8406444368        1.8179772108        0.0596683046
  U        -3.1863205729        2.3147026241       -5.6889066145
  U         2.1493987747        5.6178439646        3.7159937454
  U        -2.0210185067        5.5758207247        4.3256418639
  U        -2.5582982631       -5.6872718174       -3.4440657096
  U         0.0531970547        0.0257546364        7.1011893615
  U        -5.9695870689       -3.5602710247        2.2511292556
  U         6.0628281282       -0.6212031712       -3.5482945073
  U        -3.6410977038        6.0294304350        0.3387141821
  U        -6.2088729243        0.5168452511       -3.4919909219
  U        -3.1197891547        2.2347028118        5.7059365947
  U        -5.6875083027       -3.4278897599       -2.2508047737
  U         3.4793793565       -5.8574774451       -0.1025816856
  U         4.5897194694       -3.9388894103        3.5707730764
  U         3.5538966402        2.0102311154       -5.9351509109
  U         5.3530514953        4.8435063429        0.0387546371
  U        -6.5075006449        2.9020473547        0.0709280828
  U         6.0127104874       -0.5285463288        3.5281807228
  U        -6.4680528018       -0.1924854619        3.5137648615
  U         4.6166490851       -3.6963165805       -3.9615895979
  U         0.3511163029       -3.6520607197        5.9714093378
  O         6.1187565671        3.5220059618        0.9274625901
  O         3.1159609856        7.0356189202       -4.6098325533
  O        -3.9203124354        3.0496663343       -7.3048202658
  O        -5.6360661117        4.9130356645        0.8360336163
  O         4.7998355103       -0.1211844198        2.2585866347
  O        -2.3376513412       -6.9831636925        1.5304836063
  O        -4.5061552180       -4.4729193303        3.8056700686
  O        -6.3951579155       -2.9718742087        0.0477509250
  O         0.4200348396        5.4945933853       -4.4200334713
  O        -7.1416175849        1.2671985313       -1.4258981060
  O         6.2160045125        3.5776049133       -0.9240314852
  O        -3.9217842633        3.0179430758        7.2311573102
  O         3.1411239629        6.9546153152        4.5724736550
  O        -5.5944248662        4.8961073264       -0.8079047113
  O        -4.5496114556       -4.5721230259       -3.9054054527
  O        -0.6073903990       -8.9412716525       -0.0155219845
  O        -7.2983523845       -4.3200053532        2.6501826137
  O         2.3159607136        4.2002117402       -2.7606568193
  O        -6.6966783407        2.4730390530       -2.2273653170
  O         0.4232095075        5.6346342670        4.6560373511
  O        -7.0471240380        1.1969917177        1.4621644663
  O        -7.2869281136       -4.3022339959       -2.6341580247
  O        -4.5953616558       -5.3639841698        2.4924897687
  O        -0.5426952554       -5.3597500956        0.2953506295
  O         4.9676891913       -5.1271508337        1.5599262553
  O         6.6177745579        1.1608383884       -2.1180669168
  O         2.6281489940       -3.3183699644        2.9077102754
  O         0.5160675738        6.4902866838       -3.0763456295
  O        -2.4415551557        4.5141435354       -0.1828595622
  O         4.4920616688        2.6751837800       -7.3486408650
  O         1.7050367385        4.0860880610        2.9250955052
  O        -6.5917059165        2.3568576064        2.2592734284
  O        -4.6474633466       -5.4289780598       -2.5565193226
  O         4.9178220294       -5.1283674816       -1.5252050576
  O         3.3875205054       -3.5121939103       -2.5902227238
  O         5.5232111186        1.4536833526       -4.7497898370
  O         7.6262819118       -0.6976422642       -4.5917014887
  O         6.0396985503       -2.6277349820       -2.8829811616
  O         6.8768013251        1.2251716111        2.2271763488
  O         4.5102787086        2.6532732310        7.3664080193
  O         0.4266572770        6.1216384827        2.8872070650
  O        -0.6099775890       -5.6223989718        4.7777467178
  O         5.2877645397       -5.2517093138        4.5916068666
  O         0.2339141614       -2.6462290205        4.5346029039
  O        -1.9703123775        4.3343257590       -5.4925205710
  O        -1.3024456633        1.9146006903       -7.0297698008
  O         5.4744507646        1.4579721951        4.6882156082
  O         6.0163003663       -2.7981286538        2.8610696666
  O         7.5755031161       -0.6640580581        4.5755748524
  O        -0.6264479406       -5.7002406737       -4.7639985012
  O        -0.0761894400       -2.5916453119       -4.3972934285
  O         5.3128580536       -5.3709478717       -4.6392823873
  O         4.4451455226       -7.5233842611       -0.0102947630
  O         8.5448258769        1.8111065789       -0.0086699257
  O        -3.5468896168        6.0682509614       -2.2407593191
  O        -1.0604772053        3.6972998932       -3.2076480645
  O         4.9313012980        0.2372212542       -0.1390810791
  O        -1.8813187626        4.2864822759        5.5686636142
  O        -1.3038576362        1.9191005429        7.0429293664
  O        -0.2502965191        0.0340078332       -5.5364393191
  O         1.1342896068       -2.0881864641        7.0316994616
  O         2.8421706170       -3.8320762198        5.4345904032
  O         2.9259272344        5.6046246809       -1.3134028142
  O         5.0240687684        0.2366898740       -5.6200818652
  O        -3.5399637795        6.0447035834        2.2583477637
  O        -1.1200372702        4.1438276829        3.0818618395
  O         1.0826972527       -2.1097122052       -6.9592618711
  O         2.7728855851       -3.8924077374       -5.5628177545
  O         0.7685630516       -4.9673612240        7.3131351260
  O        -0.1528897411       -0.0523635985        5.3661659051
  O        -3.1399156511       -7.1294014679        4.3940463865
  O        -2.0703520944        6.7993777295       -1.5284488160
  O        -4.5742780287        7.5128729525        0.0289660583
  O         4.9748367477        0.2723117298        5.5876373606
  O         3.1126126865        6.1327723687        1.5086347843
  O         0.0319272432        0.0300962556       -8.9233599818
  O         0.7781961294       -4.9504251357       -7.1923662466
  O        -3.1017966535       -7.1036833679       -4.4005184509
  O        -6.0281435433       -1.8467111322        4.0311787557
  O         1.6045233737       -7.0875768561       -0.7743054200
  O         6.8809416880       -0.2030070392        1.4220077194
  O         4.2130694822        5.1748290740        2.2178102503
  O        -1.9776841512        6.5794698454        1.5683499026
  O        -6.0720624678       -1.7991712815       -3.8807869296
  O         1.6088438207       -7.0642378494        0.7184011102
  O         0.0349462295        0.0438696628        8.8838076496
  O        -1.7048265451       -4.8074553291        5.4900193955
  O        -4.2492080374       -1.9630373278        1.8994120225
  O         2.0837172970       -4.5205831236        0.4237863990
  O        -3.2702926700        4.3971883242       -4.6829479021
  O        -4.8848166293        0.8124760426       -5.4693629458
  O         2.4036915485        1.1110558407       -4.7109749984
  O        -4.6916916857        2.2022624951        0.5141719768
  O         6.7289444631       -0.2546478611       -1.3840399150
  O         4.4829712808        5.4009634728       -2.2881919646
  O        -1.6329171282       -4.8018167107       -5.5333251371
  O        -4.1283688597       -2.7371922265       -1.7746457954
  O         2.3058287867       -4.9711810517        4.6909693913
  O        -2.3030104056        0.6042016599       -7.0945610373
  O        -4.8434366567        0.4470477443       -2.5678737160
  O         3.6605064536        3.3605204485       -0.2543919684
  O         2.3930195485        1.6996565783        4.5215335730
  O        -3.3605817914        4.3672936792        4.6196487992
  O        -4.7642359715        0.8038352484        5.3956903380
  O         2.2726389032       -5.0455790616       -4.7528996884
  O        -0.9813993943       -7.0125639711       -2.2740910075
  O        -5.6679224994       -4.2691111479        0.0429744305
  O         5.8437206226        6.5069514754       -0.0025053675
  O         2.6028835256        4.1763812509       -5.5864668627
  O         4.0066407137        4.1276932540       -4.8332205310
  O        -2.2684663137        0.5636608366        7.0673097804
  O        -4.6974575212       -0.0370134700        3.0089161916
  O        -1.0060230794       -7.0740569516        2.2871462051
  O        -0.5775162148       -2.2964370108        7.0095887440
  O        -6.8599861563       -1.3988068100        2.3365208487
  O        -1.9620243820       -4.3298827425        2.4566363085
  O        -2.6466118547        1.1837842678       -4.3310864358
  O        -7.7521617534        0.6045725587       -4.3694487177
  O         2.5742491747        4.2090679737        5.5846784638
  O         3.8301927021        4.0364060582        4.6551678862
  O        -0.4913435629       -2.3043861071       -7.0148691569
  O        -2.2182698746       -4.2615444804       -2.2974773759
  O        -6.7737061533       -1.4452545571       -2.4486256331
  O         3.7490931244       -5.9760326543       -2.2346841769
  O        -2.0712132636        7.1298145778       -4.5934028513
  O         2.3658782892        0.5117389002       -7.2007163362
  O         1.5635485783        1.7961935577       -7.0481016457
  O        -5.1787700955        2.1722016490       -4.8084348794
  O         5.0939696661       -2.2929894226       -4.6871780204
  O        -1.9321854565        1.7954402260        4.1898754220
  O        -7.7371917516        0.6848086327        4.3648415551
  O         3.6908731899       -5.8149820166        2.2054138841
  O         4.3570891425        0.0896936022       -2.7856562190
  O        -8.1740781290        3.5861859901       -0.0041014145
  O         2.3506596278        0.4995758032        7.0406582575
  O         1.5565492085        1.7930539242        7.0662353754
  O        -2.0270468337        7.1984370734        4.4746340386
  O        -4.9154377726        2.0373611651        4.5526172500
  O         5.0383499529       -2.3656436388        4.7140607707
  O        -2.3260671801       -7.0098162356       -1.5223409390
  K        -3.4398310567        2.8514734208       -2.1366255250
  K        -2.8717104834        2.2320927740        2.3855801955
  K         0.8128839797       -4.3410321573       -1.8553740880
  K         0.3570642967       -4.0437893364        1.5233610168
  K         4.4043049587       -1.2808312543       -0.4674662511
  K         0.3768783792        4.3878520061       -0.4996348626
  K        -2.4229086978       -0.6658463380       -3.9416929899
  K        -2.4065399681       -1.1725244354        4.2147310131
  K         4.1820149785        2.0081198736       -2.3696614798
  K         3.2931179337        2.6115795593        1.9933007999
  K         2.0813626448       -1.1210170449       -4.5302736631
  K         2.3294152563       -1.0885396358        4.2918545081
  K         0.2017504926        2.5326186817       -4.6167048233
  K         0.3356368992        2.7328978562        4.4918069794
  K        -4.9994240571        0.0034617377        0.0848225737
  K        -3.1952184909       -3.6752918348        0.5667933324
  K         3.7296370646       -1.7657536048        7.2257110265
  K         3.7067483745       -1.7390492435       -7.2546261370
  K        -6.1724607542        7.1857241410       -2.4047597243
  K        -6.2086557833        7.2023753086        2.4277285642
  K        -3.6295079668        5.8421706144       -6.9682989394
  K        -3.6460950480        5.8244884262        6.9984294402
  K         3.4762066197       -6.1830834068       -6.8959164472
  K         3.4536793193       -6.1812882196        6.9186858894
  K        -2.3231641245        1.7872830555       -9.3946867301
  K        -2.3182071164        1.7836627132        9.3954528118
  K         6.8532286497       -3.1729891351        6.5299819654
  K         6.8653973000       -3.1905077554       -6.5419275071
     196
 i =        2, E =     -4461.3740664855
  U         2.8441879694        5.6652686368       -3.7115968213
  U        -1.6012096254        5.9199450619       -3.3722703634
  U         3.5721764521        2.1709734894        5.8918906433
  U        -0.0002233625       -0.0000728534       -7.1626473592
  U         0.4388291171       -3.9473626460       -5.6966495921
  U        -2.5116767871       -5.7851397523        3.4944073455
  U        -0.6072802720       -7.1908472029        0.0422000346
  U         6.7667198044        1.7197442572        0.0528273646
  U        -3.1949236476        2.3147131703       -5.7238709999
  U         2.2093966101        5.6372967456        3.6704701530
  U        -1.9175442306        5.5125451040        4.2429090981
  U        -2.5691269975       -5.6938441838       -3.4397126284
  U         0.0605166934        0.0031053097        7.1146301434
  U        -5.9000238839       -3.3440926252        2.2924022589
  U         6.0212780179       -0.6137406664       -3.6208839675
  U        -3.5465503965        5.9820828735        0.1952580167
  U        -6.2515683985        0.5028162392       -3.4741865425
  U        -3.1392230723        2.3051608771        5.6921632809
  U        -5.7189791417       -3.4687067188       -2.2220093938
  U         3.4913364377       -5.9157432881       -0.0617224086
  U         4.5200277688       -3.9252662429        3.5421145704
  U         3.5761117721        2.0393000597       -5.9222724696
  U         5.2442134146        4.7931119990        0.0083888177
  U        -6.5012551154        2.9015912410        0.0871911142
  U         6.0410043462       -0.5544620226        3.5525915137
  U        -6.4808573905       -0.2025661520        3.5702032329
  U         4.6761204636       -3.7889026639       -3.8243199524
  U         0.4087686325       -3.7405724327        5.9422983464
  O         6.0964200430        3.4962117269        0.9859095422
  O         3.2360263818        7.0224161001       -4.6711369919
  O        -3.9166352120        3.0799875144       -7.3153101625
  O        -5.6372116897        4.9723887463        0.8369621734
  O         4.7092086187       -0.1744904238        2.3410015269
  O        -2.3405789961       -7.0125518117        1.5544727706
  O        -4.5434733435       -4.4790762146        3.7970667247
  O        -6.4091816454       -2.9784526147        0.0687137267
  O         0.4358703227        5.5477677698       -4.3903501994
  O        -7.1507361204        1.2765505823       -1.4260369821
  O         6.2812394642        3.5724516977       -0.9680786225
  O        -3.9204646028        3.0399407952        7.2520585256
  O         3.1375871668        6.9760639011        4.5784002439
  O        -5.5905875911        4.9259631086       -0.7701367571
  O        -4.5681689088       -4.6003678671       -3.9018949057
  O        -0.6113698352       -8.9730026835       -0.0156552802
  O        -7.2038290809       -4.3994491185        2.5839656959
  O         2.2399074114        4.1210575178       -2.7584075502
  O        -6.6816812997        2.4743438643       -2.2095632250
  O         0.4271816568        5.6399441020        4.6473140647
  O        -7.0588089789        1.1774943280        1.5083766844
  O        -7.2843625655       -4.2976296905       -2.6411261829
  O        -4.6347904177       -5.3239895241        2.4902933566
  O        -0.5427884832       -5.3317347399        0.2141124760
  O         4.9613424522       -5.1338944989        1.5757067441
  O         6.6476244449        1.1442672455       -2.1397334759
  O         2.7437863219       -3.2946413174        2.9073536420
  O         0.5268770264        6.4914895810       -3.0903232587
  O        -2.4368820133        4.4649621648       -0.1655383830
  O         4.4930193791        2.6623118782       -7.3550348910
  O         1.6903966560        4.0720129717        2.9103204622
  O        -6.6272284327        2.3388880038        2.2928290285
  O        -4.6594750172       -5.4511149057       -2.5915301251
  O         4.9167451738       -5.1459844649       -1.5558062744
  O         3.2857267086       -3.3931910490       -2.5517687230
  O         5.5263904935        1.4293664493       -4.7794209925
  O         7.6228794362       -0.7352560482       -4.5818964287
  O         6.0717590057       -2.5573323604       -2.8609147281
  O         6.9070585442        1.2141757696        2.2401604176
  O         4.5135539132        2.6490882825        7.3707994056
  O         0.4023089473        6.1885824862        2.9106265341
  O        -0.6059675357       -5.5991604021        4.8088129168
  O         5.3135083727       -5.1976737959        4.6335116016
  O         0.1914129306       -2.6265055704        4.5300709521
  O        -1.9955230465        4.3355622268       -5.4951517040
  O        -1.3172250720        1.9061376228       -7.0433081653
  O         5.4776032231        1.4458925229        4.7005979248
  O         5.9959847536       -2.7996589017        2.8204951034
  O         7.5669161206       -0.7028540315        4.5801645715
  O        -0.6358519289       -5.6977519351       -4.7661420982
  O        -0.0282054989       -2.6576555247       -4.3758566165
  O         5.3723453218       -5.3911429925       -4.7521956159
  O         4.4276415454       -7.4932833466       -0.0000071956
  O         8.5285743600        1.8755415296       -0.0012142539
  O        -3.5627616417        6.0857480668       -2.2380664570
  O        -1.0849123584        3.7980352944       -3.1196603803
  O         4.8331617471        0.3741453549       -0.1357930139
  O        -1.8467622811        4.2905120887        5.6344790588
  O        -1.3118370644        1.9013251543        7.0753503030
  O        -0.2019425100       -0.0309957151       -5.4949222271
  O         1.1414381023       -2.0894654790        7.0292026569
  O         2.8481642357       -3.8404397532        5.4790354567
  O         3.0322793387        5.6506086987       -1.3207137346
  O         5.0291313104        0.2267548333       -5.6266904727
  O        -3.5672178202        6.0661997281        2.2128486752
  O        -1.2118777751        4.1823361397        3.1012026752
  O         1.0691175119       -2.0740573030       -6.9780550366
  O         2.8222365005       -3.8671297725       -5.5412717395
  O         0.7905790040       -4.9766768086        7.3340458515
  O        -0.1097124294       -0.0490057880        5.3456114072
  O        -3.1425415910       -7.1620234529        4.3970336397
  O        -2.0398811536        6.8336649741       -1.5902012666
  O        -4.6265812165        7.5079039465        0.1061381865
  O         4.9646214089        0.2711441739        5.5666176334
  O         3.1342530875        6.1148381564        1.5258012758
  O         0.0183374545        0.0333572588       -8.9691583689
  O         0.7933023583       -4.9612595954       -7.1883361728
  O        -3.1047638085       -7.1112283555       -4.4069234509
  O        -6.0195858782       -1.8888317044        4.0644560445
  O         1.5900933620       -7.0960162331       -0.7775894041
  O         6.9330758860       -0.1403869141        1.4397835915
  O         4.1963456931        5.2102866691        2.1889420316
  O        -2.0029533940        6.6206863614        1.6295970214
  O        -6.0818425105       -1.7944095761       -3.8611657574
  O         1.6188833745       -7.1045067041        0.7020231993
  O         0.0229033515        0.0574678659        8.9157676717
  O        -1.7004121649       -4.8053763969        5.4974714569
  O        -4.3611659728       -2.1091439686        1.9176316419
  O         2.1391204824       -4.5024235600        0.3381929916
  O        -3.2804331256        4.4094897800       -4.6958917538
  O        -4.9042753733        0.8414931144       -5.4945838876
  O         2.4514688900        1.1638566934       -4.6655290631
  O        -4.7295244242        2.2350398369        0.4117578548
  O         6.7938901050       -0.2195775281       -1.3944874210
  O         4.4595354071        5.4395306059       -2.2701403723
  O        -1.6492530562       -4.8271218202       -5.5231842101
  O        -4.1626518998       -2.6644931172       -1.7698284748
  O         2.2982407854       -4.9474308635        4.7220264835
  O        -2.2943757081        0.6280492438       -7.1109548670
  O        -4.7928901599        0.4702066625       -2.5894701959
  O         3.7594392270        3.4043601419       -0.2386125613
  O         2.4442850869        1.6416344194        4.4862463377
  O        -3.3970577467        4.3996971921        4.5759313323
  O        -4.7642315616        0.8102947066        5.4037469486
  O         2.2868506014       -5.0270226802       -4.7680272787
  O        -0.9906587061       -7.0149099355       -2.2754002976
  O        -5.6909465028       -4.2730769409        0.0928396697
  O         5.8419364517        6.4699085085        0.0088962413
  O         2.6305062557        4.1658964217       -5.5819865786
  O         4.0092725325        4.1640547230       -4.8392285563
  O        -2.2600170258        0.5810011987        7.0968705331
  O        -4.7188975105       -0.0279112107        2.9449859811
  O        -1.0222584466       -7.1071738576        2.3042187576
  O        -0.5739530057       -2.3168027060        6.9982907749
  O        -6.8486235761       -1.3583401889        2.2516912152
  O        -1.9442617703       -4.3071354745        2.5051192002
  O        -2.5378562630        1.2480055239       -4.3023339318
  O        -7.7784770842        0.6171005566       -4.3944225631
  O         2.5886547921        4.2260639096        5.5988661599
  O         3.8185029544        4.0695438117        4.6785729024
  O        -0.4786308332       -2.2715360731       -7.0704232131
  O        -2.1465407368       -4.2629511842       -2.3153650595
  O        -6.7854752743       -1.4548177382       -2.4717516169
  O         3.7742423566       -5.9527611581       -2.2325793304
  O        -2.0649640238        7.1925358878       -4.5526665042
  O         2.3512462847        0.4994423103       -7.2366967926
  O         1.5645814153        1.7804447949       -7.1018993826
  O        -5.2229820815        2.1636731187       -4.8001232646
  O         4.9424670187       -2.3047004072       -4.7859130736
  O        -2.0186062319        1.7367029748        4.2387199498
  O        -7.7563228103        0.7440401539        4.3957534089
  O         3.7377394564       -5.8108911261        2.2265001027
  O         4.3548370497        0.0099160705       -2.7946611775
  O        -8.1680828509        3.5997604585        0.0027406891
  O         2.3386291735        0.4931246117        7.0554413231
  O         1.5558667034        1.7826235339        7.1012678391
  O        -2.0403455502        7.1858313226        4.4522597407
  O        -4.9545382959        2.0294597203        4.5630333560
  O         4.9959591449       -2.3681340675        4.7818618855
  O        -2.3155158764       -7.0233683635       -1.5335461429
  K        -3.4328333313        2.8754656414       -2.1211503937
  K        -2.8736942293        2.2691278364        2.3144393864
  K         0.8013873635       -4.3347960301       -1.8946744714
  K         0.4014935839       -4.0420182568        1.5852074542
  K         4.4856900519       -1.3019829358       -0.4567740976
  K         0.3839488022        4.3934306188       -0.5014331259
  K        -2.4673423574       -0.7234310761       -3.9440520642
  K        -2.4233329342       -1.1982015872        4.1995335242
  K         4.1711390268        2.0113385972       -2.3861414701
  K         3.3293988277        2.5475741743        2.0213564617
  K         2.0953006305       -1.1268469702       -4.4771523125
  K         2.3318279798       -1.0746497460        4.2627254462
  K         0.2079786415        2.5846483603       -4.5892974842
  K         0.3231261543        2.7350830442        4.5208219558
  K        -4.9908453667       -0.0805236639        0.0990735795
  K        -3.1395433819       -3.6998330355        0.4858036218
  K         3.7236186980       -1.7464685081        7.2167672298
  K         3.6826593420       -1.7216265305       -7.2628102547
  K        -6.1448563637        7.1624345520       -2.3807702100
  K        -6.1988106237        7.1863064789        2.4117576792
  K        -3.6157935350        5.8200716135       -6.9463784084
  K        -3.6599637935        5.7947877703        7.0157151263
  K         3.4464237733       -6.1819728675       -6.8529770445
  K         3.4165027032       -6.1719167410        6.8809198222
  K        -2.3267425014        1.7837307635       -9.3854982634
  K        -2.3204668788        1.7764866318        9.3894200537
  K         6.8690232643       -3.1562888313        6.4738924968
  K         6.9104442642       -3.1836167985       -6.5129182763
     196
 i =        3, E =     -4461.9555567695
  U         2.7380664814        5.6283153425       -3.6912883508
  U        -1.6076132322        5.6699450619       -3.4547699288
  U         3.5765506702        2.1723826280        5.8917854417
  U         0.0110479802        0.0105717426       -7.1777683527
  U         0.4441078518       -3.9379392481       -5.7149329379
  U        -2.5259835880       -5.7784079498        3.4996755948
  U        -0.6160285348       -7.1973246808        0.0481988214
  U         6.6983217926        1.6566051761        0.0338753698
  U        -3.2152202353        2.3250815557       -5.7279536422
  U         2.2624649835        5.6323323892        3.6554484045
  U        -1.8662513090        5.4971922247        4.1834330424
  U        -2.5729167061       -5.6949136374       -3.4468598774
  U         0.0557984991        0.0112934225        7.1240768295
  U        -5.8478639992       -3.3442697890        2.2806378749
  U         5.9983048784       -0.6163042174       -3.6556760234
  U        -3.5333433148        5.9688108803        0.1463493794
  U        -6.2667130219        0.5030423204       -3.4724713738
  U        -3.1473752353        2.3339407295        5.7059114329
  U        -5.7338677982       -3.4836028517       -2.2205143965
  U         3.4881536500       -5.9381937388       -0.0452745416
  U         4.4725198728       -3.9144194165        3.5488840611
  U         3.5735426110        2.0516816020       -5.9332792059
  U         5.1675897615        4.7522173578       -0.0168742581
  U        -6.5106984493        2.9102256454        0.1046360975
  U         6.0412013567       -0.5802745323        3.5671070836
  U        -6.4852102924       -0.1566163758        3.5905901297
  U         4.6908656394       -3.8435480766       -3.7470458715
  U         0.4386482507       -3.7925649007        5.9207664812
  O         6.0799271684        3.4804633798        1.0191510334
  O         3.3082616756        7.0018417655       -4.6736437516
  O        -3.9105271927        3.0897284160       -7.3218486132
  O        -5.6341007176        4.9874458266        0.8303758436
  O         4.6638242861       -0.2068294188        2.3879828178
  O        -2.3463742880       -7.0316289820        1.5640141399
  O        -4.5371508963       -4.4989653928        3.8072624381
  O        -6.4223927120       -2.9811093199        0.0474707242
  O         0.4539981303        5.5978046960       -4.3773616232
  O        -7.1517996250        1.2874178346       -1.4206470613
  O         6.3258964307        3.5765593493       -1.0024107080
  O        -3.9242737743        3.0692265428        7.2665544058
  O         3.1320057994        6.9936085710        4.5725367006
  O        -5.5793930383        4.9493505167       -0.7463108242
  O        -4.5906191508       -4.6104395118       -3.8882650097
  O        -0.6178040243       -8.9864425057       -0.0133212705
  O        -7.1708487908       -4.4162608560        2.5529284807
  O         2.1738151240        4.0754361287       -2.7708253384
  O        -6.6710013748        2.4757958046       -2.1996155081
  O         0.4345365358        5.6563499576        4.6408726383
  O        -7.0670902219        1.1695857063        1.5464024853
  O        -7.2893002996       -4.3018018680       -2.6362395615
  O        -4.6240718761       -5.3142263068        2.5084727351
  O        -0.5490843281       -5.3201822290        0.1742146267
  O         4.9592848747       -5.1400430560        1.6033511362
  O         6.6887369523        1.1321634773       -2.1644085051
  O         2.8222041011       -3.2489167118        2.8885901101
  O         0.5296901859        6.4957119838       -3.1003880550
  O        -2.4425018392        4.4404650761       -0.1402341496
  O         4.5011549815        2.6547259497       -7.3632755718
  O         1.6779748168        4.0646029321        2.8897226805
  O        -6.6420103313        2.3330514477        2.3099452057
  O        -4.6717593094       -5.4633213934       -2.6070989085
  O         4.9121629959       -5.1510185606       -1.5868108275
  O         3.2383380147       -3.3181173044       -2.5331499679
  O         5.5333179422        1.4207381319       -4.8079992333
  O         7.6130258946       -0.7699224719       -4.5871790663
  O         6.0854888066       -2.5386315421       -2.8532215478
  O         6.9249668585        1.1976719703        2.2519348927