 DBCSR| CPU Multiplication driver                                           XSMM
 DBCSR| Multrec recursion limit                                              512
 DBCSR| Multiplication stack size                                           1000
 DBCSR| Maximum elements for images                                    UNLIMITED
 DBCSR| Multiplicative factor virtual images                                   1
 DBCSR| Use multiplication densification                                       T
 DBCSR| Multiplication size stacks                                             3
 DBCSR| Use memory pool for CPU allocation                                     F
 DBCSR| Number of 3D layers                                               SINGLE
 DBCSR| Use MPI memory allocation                                              F
 DBCSR| Use RMA algorithm                                                      F
 DBCSR| Use Communication thread                                               T
 DBCSR| Communication thread load                                             87
 DBCSR| MPI: My node id                                                        0
 DBCSR| MPI: Number of nodes                                                  56
 DBCSR| OMP: Current number of threads                                         1
 DBCSR| OMP: Max number of threads                                             1
 DBCSR| Split modifier for TAS multiplication algorithm                  1.0E+00


  **** **** ******  **  PROGRAM STARTED AT               2023-12-05 11:14:11.094
 ***** ** ***  *** **   PROGRAM STARTED ON                           ibc11b02n07
 **    ****   ******    PROGRAM STARTED BY                                 junli
 ***** **    ** ** **   PROGRAM PROCESS ID                                 13072
  **** **  *******  **  PROGRAM STARTED IN  /WORK/junli_work/libin/1_U28/0_try_1

 CP2K| version string:                                          CP2K version 9.1
 CP2K| source code revision number:                                  git:d8d7100
 CP2K| cp2kflags: omp libint fftw3 libxc elpa parallel mpi3 scalapack cosma xsmm
 CP2K|             plumed2 spglib libvori libbqb
 CP2K| is freely available from                            https://www.cp2k.org/
 CP2K| Program compiled at                          Sun Aug 13 14:10:33 CST 2023
 CP2K| Program compiled on                                               ibcln01
 CP2K| Program compiled for                                                local
 CP2K| Data directory path                         /apps/soft/cp2k/cp2k-9.1/data
 CP2K| Input file name                                                  cp2k.inp

 GLOBAL| Force Environment number                                              1
 GLOBAL| Basis set file name                                        BASIS_MOLOPT
 GLOBAL| Potential file name                                      GTH_POTENTIALS
 GLOBAL| MM Potential file name                                     MM_POTENTIAL
 GLOBAL| Coordinate file name                                          U28_1.xyz
 GLOBAL| Method name                                                        CP2K
 GLOBAL| Project name                                                        U28
 GLOBAL| Run type                                                        GEO_OPT
 GLOBAL| FFT library                                                       FFTW3
 GLOBAL| Diagonalization library                                            ELPA
 GLOBAL| Minimum number of eigenvectors for ELPA usage                        16
 GLOBAL| Orthonormality check for eigenvectors                          DISABLED
 GLOBAL| Matrix multiplication library                                     COSMA
 GLOBAL| All-to-all communication in single precision                          F
 GLOBAL| FFTs using library dependent lengths                                  F
 GLOBAL| Grid backend                                                       AUTO
 GLOBAL| Global print level                                                  LOW
 GLOBAL| MPI I/O enabled                                                       T
 GLOBAL| Total number of message passing processes                            56
 GLOBAL| Number of threads for this process                                    1
 GLOBAL| This output is from process                                           0
 GLOBAL| Stack size for threads created by OpenMP (OMP_STACKSIZE)        default
 GLOBAL| CPU model name                Intel(R) Xeon(R) Gold 6258R CPU @ 2.70GHz
 GLOBAL| CPUID                                                              1003

 MEMORY| system memory details [Kb]
 MEMORY|                        rank 0           min           max       average
 MEMORY| MemTotal            196695916     196695916     196695916     196695916
 MEMORY| MemFree             171070044     171070044     171070044     171070044
 MEMORY| Buffers                     0             0             0             0
 MEMORY| Cached                5078500       5078500       5078500       5078500
 MEMORY| Slab                   774564        774564        774564        774564
 MEMORY| SReclaimable           232568        232568        232568        232568
 MEMORY| MemLikelyFree       176381112     176381112     176381112     176381112


 *******************************************************************************
 *******************************************************************************
 **                                                                           **
 **     #####                         ##              ##                      **
 **    ##   ##            ##          ##              ##                      **
 **   ##     ##                       ##            ######                    **
 **   ##     ##  ##   ##  ##   #####  ##  ##   ####   ##    #####    #####    **
 **   ##     ##  ##   ##  ##  ##      ## ##   ##      ##   ##   ##  ##   ##   **
 **   ##  ## ##  ##   ##  ##  ##      ####     ###    ##   ######   ######    **
 **    ##  ###   ##   ##  ##  ##      ## ##      ##   ##   ##       ##        **
 **     #######   #####   ##   #####  ##  ##  ####    ##    #####   ##        **
 **           ##                                                    ##        **
 **                                                                           **
 **                                                ... make the atoms dance   **
 **                                                                           **
 **            Copyright (C) by CP2K developers group (2000-2021)             **
 **                      J. Chem. Phys. 152, 194103 (2020)                    **
 **                                                                           **
 *******************************************************************************


 TOTAL NUMBERS AND MAXIMUM NUMBERS

  Total number of            - Atomic kinds:                                   3
                             - Atoms:                                        196
                             - Shell sets:                                   196
                             - Shells:                                      1148
                             - Primitive Cartesian functions:               1064
                             - Cartesian basis functions:                   3948
                             - Spherical basis functions:                   3388

  Maximum angular momentum of- Orbital basis functions:                        4
                             - Local part of the GTH pseudopotential:          2
                             - Non-local part of the GTH pseudopotential:      3


 SCF PARAMETERS         Density guess:                                   RESTART
                        --------------------------------------------------------
                        max_scf:                                              50
                        max_scf_history:                                       0
                        max_diis:                                              4
                        --------------------------------------------------------
                        eps_scf:                                        1.00E-05
                        eps_scf_history:                                0.00E+00
                        eps_diis:                                       1.00E-01
                        eps_eigval:                                     1.00E-05
                        --------------------------------------------------------
                        level_shift [a.u.]:                                 0.00
                        --------------------------------------------------------
                        Outer loop SCF in use 
                        No variables optimised in outer loop
                        eps_scf                                         1.00E-05
                        max_scf                                               10
                        No outer loop optimization
                        step_size                                       5.00E-01

 BFGS| Use rational function optimization for step estimation:                NO
 BFGS| Use model Hessian for initial guess:                                  YES
 BFGS| Restart Hessian:                                                       NO
 BFGS| Trust radius:                                                       0.094

 *******************************************************************************
 ***                     STARTING GEOMETRY OPTIMIZATION                      ***
 ***                                   BFGS                                  ***
 *******************************************************************************

 Number of electrons:                                                       1484
 Number of occupied orbitals:                                                742
 Number of molecular orbitals:                                               742

 Number of orbital functions:                                               3388
 Number of independent orbital functions:                                   3388

 Extrapolation method: initial_guess

 *** WARNING in qs_initial_guess.F:309 :: User requested to restart the    ***
 *** wavefunction from the file named: U28-RESTART.wfn. This file does not ***
 *** exist. Please check the existence of the file or change properly the  ***
 *** value of the keyword WFN_RESTART_FILE_NAME. Calculation continues     ***
 *** using ATOMIC GUESS.                                                   ***



 SCF WAVEFUNCTION OPTIMIZATION

  ----------------------------------- OT ---------------------------------------
  Minimizer      : DIIS                : direct inversion
                                         in the iterative subspace
                                         using   7 DIIS vectors
                                         safer DIIS on
  Preconditioner : FULL_SINGLE         : diagonalization based
  Precond_solver : DEFAULT
  stepsize       :    0.15000000                  energy_gap     :    0.20000000
  eps_taylor     :   0.10000E-15                  max_taylor     :             4
  ----------------------------------- OT ---------------------------------------

  Step     Update method      Time    Convergence         Total energy    Change
  ------------------------------------------------------------------------------
     1 OT DIIS     0.15E+00    5.8     0.03753012     -4331.7485906003 -4.33E+03
     2 OT DIIS     0.15E+00    2.2     0.07153413     -4150.6763450997  1.81E+02
     3 OT DIIS     0.15E+00    1.9     0.10342429     -4202.6655760678 -5.20E+01
     4 OT DIIS     0.15E+00    2.1     0.13254809     -4188.6670550247  1.40E+01
     5 OT DIIS     0.15E+00    2.2     0.05329618     -4340.3325827415 -1.52E+02
     6 OT DIIS     0.15E+00    1.9     0.08750939     -4321.9950069252  1.83E+01
     7 OT DIIS     0.15E+00    1.8     0.01899071     -4397.8905206233 -7.59E+01
     8 OT DIIS     0.15E+00    2.0     0.02640612     -4408.4815948971 -1.06E+01
     9 OT DIIS     0.15E+00    2.1     0.03069910     -4409.2792664167 -7.98E-01
    10 OT DIIS     0.15E+00    2.1     0.01871527     -4425.0551561038 -1.58E+01
    11 OT DIIS     0.15E+00    2.1     0.01384066     -4430.3917042189 -5.34E+00
    12 OT DIIS     0.15E+00    2.1     0.01032591     -4435.8964057305 -5.50E+00
    13 OT DIIS     0.15E+00    1.9     0.00741817     -4439.1172439693 -3.22E+00
    14 OT DIIS     0.15E+00    1.8     0.00619662     -4440.8884695707 -1.77E+00
    15 OT DIIS     0.15E+00    2.0     0.00463181     -4442.4468837799 -1.56E+00
    16 OT DIIS     0.15E+00    1.9     0.00430468     -4443.4403161853 -9.93E-01
    17 OT DIIS     0.15E+00    2.1     0.00369007     -4444.3583983776 -9.18E-01
    18 OT DIIS     0.15E+00    2.0     0.00318698     -4444.9273527684 -5.69E-01
    19 OT DIIS     0.15E+00    2.0     0.00267317     -4445.4782325335 -5.51E-01
    20 OT DIIS     0.15E+00    2.0     0.00220342     -4445.9251668612 -4.47E-01
    21 OT DIIS     0.15E+00    1.9     0.00214590     -4446.3058901645 -3.81E-01
    22 OT DIIS     0.15E+00    2.1     0.00174702     -4446.7133632339 -4.07E-01
    23 OT DIIS     0.15E+00    2.0     0.00187261     -4446.9243120306 -2.11E-01
    24 OT DIIS     0.15E+00    2.1     0.00171341     -4447.1426924872 -2.18E-01
    25 OT DIIS     0.15E+00    1.9     0.00170145     -4447.3146709211 -1.72E-01
    26 OT DIIS     0.15E+00    2.0     0.00160685     -4447.5060547411 -1.91E-01
    27 OT DIIS     0.15E+00    2.1     0.00140611     -4447.6290747113 -1.23E-01
    28 OT DIIS     0.15E+00    2.0     0.00134409     -4447.7418209716 -1.13E-01
    29 OT DIIS     0.15E+00    2.1     0.00120372     -4447.9059078103 -1.64E-01
    30 OT DIIS     0.15E+00    2.0     0.00111648     -4447.9874206533 -8.15E-02
    31 OT DIIS     0.15E+00    2.0     0.00114776     -4448.1208126024 -1.33E-01
    32 OT DIIS     0.15E+00    2.0     0.00113653     -4448.2158612559 -9.50E-02
    33 OT DIIS     0.15E+00    1.8     0.00116133     -4448.3067966039 -9.09E-02
    34 OT DIIS     0.15E+00    2.0     0.00111178     -4448.3982058328 -9.14E-02
    35 OT DIIS     0.15E+00    2.0     0.00113940     -4448.4775226850 -7.93E-02
    36 OT DIIS     0.15E+00    2.0     0.00109941     -4448.5701115088 -9.26E-02
    37 OT DIIS     0.15E+00    1.9     0.00099351     -4448.6351610138 -6.50E-02
    38 OT DIIS     0.15E+00    2.0     0.00099816     -4448.6822323079 -4.71E-02
    39 OT DIIS     0.15E+00    2.1     0.00094656     -4448.7580579662 -7.58E-02
    40 OT DIIS     0.15E+00    2.1     0.00093896     -4448.8007326559 -4.27E-02
    41 OT DIIS     0.15E+00    1.9     0.00090207     -4448.8461304589 -4.54E-02
    42 OT DIIS     0.15E+00    2.1     0.00082817     -4448.8840904916 -3.80E-02
    43 OT DIIS     0.15E+00    2.1     0.00080448     -4448.9313959588 -4.73E-02
    44 OT DIIS     0.15E+00    2.0     0.00075882     -4448.9834515091 -5.21E-02
    45 OT DIIS     0.15E+00    2.0     0.00071778     -4449.0171919608 -3.37E-02
    46 OT DIIS     0.15E+00    2.0     0.00074105     -4449.0592580817 -4.21E-02
    47 OT DIIS     0.15E+00    2.0     0.00070833     -4449.1012341994 -4.20E-02
    48 OT DIIS     0.15E+00    2.1     0.00073443     -4449.1349354587 -3.37E-02
    49 OT DIIS     0.15E+00    2.0     0.00073144     -4449.1668458888 -3.19E-02
    50 OT DIIS     0.15E+00    2.0     0.00069587     -4449.1864449814 -1.96E-02

  Leaving inner SCF loop after reaching    50 steps.


  Electronic density on regular grids:      -1484.0000000225       -0.0000000225
  Core density on regular grids:             1483.9999999310       -0.0000000690
  Total charge density on r-space grids:       -0.0000000915
  Total charge density g-space grids:          -0.0000000915

  Overlap energy of the core charge distribution:               0.11027509620059
  Self energy of the core charge distribution:             -10331.29031661960289
  Core Hamiltonian energy:                                   2715.76211968721009
  Hartree energy:                                            3958.68742648745592
  Exchange-correlation energy:                               -791.75614939846992
  Dispersion energy:                                           -0.69980023416941

  Total energy:                                             -4449.18644498137655

  outer SCF iter =    1 RMS gradient =   0.70E-03 energy =      -4449.1864449814

  ----------------------------------- OT ---------------------------------------
  Minimizer      : DIIS                : direct inversion
                                         in the iterative subspace
                                         using   7 DIIS vectors
                                         safer DIIS on
  Preconditioner : FULL_SINGLE         : diagonalization based
  Precond_solver : DEFAULT
  stepsize       :    0.15000000                  energy_gap     :    0.20000000
  eps_taylor     :   0.10000E-15                  max_taylor     :             4
  ----------------------------------- OT ---------------------------------------

  Step     Update method      Time    Convergence         Total energy    Change
  ------------------------------------------------------------------------------
     1 OT DIIS     0.15E+00    8.4     0.00250693     -4449.2182688899 -3.18E-02
     2 OT DIIS     0.15E+00    1.9     0.00492281     -4449.4109618532 -1.93E-01
     3 OT DIIS     0.15E+00    2.1     0.00352396     -4450.0282591395 -6.17E-01
     4 OT DIIS     0.15E+00    2.1     0.00235457     -4450.3415315391 -3.13E-01
     5 OT DIIS     0.15E+00    2.0     0.00132147     -4450.5595246334 -2.18E-01
     6 OT DIIS     0.15E+00    1.9     0.00127962     -4450.6666006417 -1.07E-01
     7 OT DIIS     0.15E+00    2.1     0.00108731     -4450.7356759828 -6.91E-02
     8 OT DIIS     0.15E+00    1.9     0.00067892     -4450.7915370713 -5.59E-02
     9 OT DIIS     0.15E+00    2.1     0.00059312     -4450.8275979992 -3.61E-02
    10 OT DIIS     0.15E+00    2.1     0.00051270     -4450.8460022542 -1.84E-02
    11 OT DIIS     0.15E+00    1.9     0.00046232     -4450.8641178307 -1.81E-02
    12 OT DIIS     0.15E+00    2.0     0.00045447     -4450.8760092709 -1.19E-02
    13 OT DIIS     0.15E+00    2.2     0.00040409     -4450.8858371904 -9.83E-03
    14 OT DIIS     0.15E+00    2.1     0.00035311     -4450.8925528078 -6.72E-03
    15 OT DIIS     0.15E+00    2.1     0.00037366     -4450.8970096658 -4.46E-03
    16 OT DIIS     0.15E+00    2.0     0.00028857     -4450.9020738734 -5.06E-03
    17 OT DIIS     0.15E+00    2.1     0.00023905     -4450.9060354386 -3.96E-03
    18 OT DIIS     0.15E+00    2.1     0.00023332     -4450.9082100603 -2.17E-03
    19 OT DIIS     0.15E+00    1.9     0.00020616     -4450.9107896703 -2.58E-03
    20 OT DIIS     0.15E+00    1.8     0.00018560     -4450.9130715854 -2.28E-03
    21 OT DIIS     0.15E+00    2.1     0.00017620     -4450.9148163637 -1.74E-03
    22 OT DIIS     0.15E+00    1.9     0.00015950     -4450.9168241664 -2.01E-03
    23 OT DIIS     0.15E+00    2.1     0.00016687     -4450.9185094988 -1.69E-03
    24 OT DIIS     0.15E+00    2.0     0.00015472     -4450.9202129475 -1.70E-03
    25 OT DIIS     0.15E+00    2.0     0.00014029     -4450.9219319931 -1.72E-03
    26 OT DIIS     0.15E+00    2.1     0.00014978     -4450.9232430348 -1.31E-03
    27 OT DIIS     0.15E+00    1.8     0.00014709     -4450.9242597819 -1.02E-03
    28 OT DIIS     0.15E+00    2.1     0.00013406     -4450.9254362106 -1.18E-03
    29 OT DIIS     0.15E+00    2.0     0.00013030     -4450.9260160177 -5.80E-04
    30 OT DIIS     0.15E+00    2.1     0.00011123     -4450.9268914059 -8.75E-04
    31 OT DIIS     0.15E+00    1.8     0.00010662     -4450.9276798930 -7.88E-04
    32 OT DIIS     0.15E+00    1.9     0.00009748     -4450.9283959535 -7.16E-04
    33 OT DIIS     0.15E+00    2.0     0.00008740     -4450.9291266433 -7.31E-04
    34 OT DIIS     0.15E+00    2.1     0.00009065     -4450.9299561060 -8.29E-04
    35 OT DIIS     0.15E+00    2.1     0.00009465     -4450.9305603190 -6.04E-04
    36 OT DIIS     0.15E+00    2.1     0.00009222     -4450.9312882616 -7.28E-04
    37 OT DIIS     0.15E+00    2.0     0.00009709     -4450.9317131523 -4.25E-04
    38 OT DIIS     0.15E+00    2.1     0.00008872     -4450.9322570711 -5.44E-04
    39 OT DIIS     0.15E+00    2.1     0.00008648     -4450.9327400330 -4.83E-04
    40 OT DIIS     0.15E+00    2.1     0.00007953     -4450.9331096102 -3.70E-04
    41 OT DIIS     0.15E+00    1.9     0.00006874     -4450.9334648940 -3.55E-04
    42 OT DIIS     0.15E+00    1.8     0.00006612     -4450.9339560529 -4.91E-04
    43 OT DIIS     0.15E+00    2.0     0.00006629     -4450.9342984323 -3.42E-04
    44 OT DIIS     0.15E+00    2.0     0.00006352     -4450.9347131300 -4.15E-04
    45 OT DIIS     0.15E+00    2.1     0.00006716     -4450.9350617578 -3.49E-04
    46 OT DIIS     0.15E+00    2.0     0.00006457     -4450.9354414400 -3.80E-04
    47 OT DIIS     0.15E+00    2.0     0.00006602     -4450.9358288027 -3.87E-04
    48 OT DIIS     0.15E+00    2.0     0.00006541     -4450.9361277384 -2.99E-04
    49 OT DIIS     0.15E+00    2.1     0.00005965     -4450.9363570160 -2.29E-04
    50 OT DIIS     0.15E+00    2.1     0.00005697     -4450.9366985382 -3.42E-04

  Leaving inner SCF loop after reaching    50 steps.


  Electronic density on regular grids:      -1484.0000000220       -0.0000000220
  Core density on regular grids:             1483.9999999310       -0.0000000690
  Total charge density on r-space grids:       -0.0000000910
  Total charge density g-space grids:          -0.0000000910

  Overlap energy of the core charge distribution:               0.11027509620059
  Self energy of the core charge distribution:             -10331.29031661960289
  Core Hamiltonian energy:                                   2711.31384970572117
  Hartree energy:                                            3961.67742717573492
  Exchange-correlation energy:                               -792.04813366206679
  Dispersion energy:                                           -0.69980023416941

  Total energy:                                             -4450.93669853818392

  outer SCF iter =    2 RMS gradient =   0.57E-04 energy =      -4450.9366985382

  ----------------------------------- OT ---------------------------------------
  Minimizer      : DIIS                : direct inversion
                                         in the iterative subspace
                                         using   7 DIIS vectors
                                         safer DIIS on
  Preconditioner : FULL_SINGLE         : diagonalization based
  Precond_solver : DEFAULT
  stepsize       :    0.15000000                  energy_gap     :    0.20000000
  eps_taylor     :   0.10000E-15                  max_taylor     :             4
  ----------------------------------- OT ---------------------------------------

  Step     Update method      Time    Convergence         Total energy    Change
  ------------------------------------------------------------------------------
     1 OT DIIS     0.15E+00    8.5     0.00005966     -4450.9369177047 -2.19E-04
     2 OT DIIS     0.15E+00    1.8     0.00024415     -4450.9361543458  7.63E-04
     3 OT DIIS     0.15E+00    2.0     0.00005015     -4450.9377449540 -1.59E-03
     4 OT DIIS     0.15E+00    2.0     0.00004404     -4450.9379607731 -2.16E-04
     5 OT DIIS     0.15E+00    2.0     0.00005918     -4450.9389129034 -9.52E-04
     6 OT DIIS     0.15E+00    2.0     0.00004918     -4450.9411245776 -2.21E-03
     7 OT DIIS     0.15E+00    2.1     0.00003678     -4450.9419643975 -8.40E-04
     8 OT DIIS     0.15E+00    1.8     0.00004351     -4450.9426820586 -7.18E-04
     9 OT DIIS     0.15E+00    1.9     0.00003339     -4450.9434691133 -7.87E-04
    10 OT DIIS     0.15E+00    2.0     0.00003377     -4450.9438844519 -4.15E-04
    11 OT DIIS     0.15E+00    2.0     0.00003612     -4450.9445911569 -7.07E-04
    12 OT DIIS     0.15E+00    2.1     0.00002885     -4450.9451233976 -5.32E-04
    13 OT DIIS     0.15E+00    2.1     0.00002699     -4450.9454852605 -3.62E-04
    14 OT DIIS     0.15E+00    2.1     0.00002800     -4450.9459168693 -4.32E-04
    15 OT DIIS     0.15E+00    1.8     0.00002759     -4450.9462473018 -3.30E-04
    16 OT DIIS     0.15E+00    2.1     0.00002613     -4450.9466082673 -3.61E-04
    17 OT DIIS     0.15E+00    2.1     0.00002568     -4450.9471911143 -5.83E-04
    18 OT DIIS     0.15E+00    2.1     0.00002502     -4450.9475650809 -3.74E-04
    19 OT DIIS     0.15E+00    1.8     0.00002459     -4450.9479442347 -3.79E-04
    20 OT DIIS     0.15E+00    2.1     0.00002809     -4450.9482267539 -2.83E-04
    21 OT DIIS     0.15E+00    1.8     0.00002292     -4450.9485138298 -2.87E-04
    22 OT DIIS     0.15E+00    2.1     0.00002216     -4450.9489012638 -3.87E-04
    23 OT DIIS     0.15E+00    2.0     0.00002414     -4450.9492523075 -3.51E-04
    24 OT DIIS     0.15E+00    2.0     0.00002374     -4450.9494882168 -2.36E-04
    25 OT DIIS     0.15E+00    2.0     0.00002194     -4450.9496813748 -1.93E-04
    26 OT DIIS     0.15E+00    2.0     0.00002679     -4450.9498138321 -1.32E-04
    27 OT DIIS     0.15E+00    2.0     0.00002355     -4450.9500164182 -2.03E-04
    28 OT SD       0.15E+00    1.8     0.00002079     -4450.9503748317 -3.58E-04
    29 OT DIIS     0.15E+00    1.9     0.00007314     -4450.9503380176  3.68E-05
    30 OT DIIS     0.15E+00    2.0     0.00001945     -4450.9507554278 -4.17E-04
    31 OT DIIS     0.15E+00    2.1     0.00002021     -4450.9508560222 -1.01E-04
    32 OT DIIS     0.15E+00    2.1     0.00002286     -4450.9508836156 -2.76E-05
    33 OT DIIS     0.15E+00    1.8     0.00002082     -4450.9509338562 -5.02E-05
    34 OT DIIS     0.15E+00    1.8     0.00002033     -4450.9514045619 -4.71E-04
    35 OT SD       0.15E+00    2.0     0.00001691     -4450.9517749687 -3.70E-04
    36 OT DIIS     0.15E+00    2.1     0.00003963     -4450.9517939184 -1.89E-05
    37 OT DIIS     0.15E+00    2.2     0.00001562     -4450.9517296606  6.43E-05
    38 OT DIIS     0.15E+00    1.9     0.00001429     -4450.9518815726 -1.52E-04
    39 OT DIIS     0.15E+00    2.1     0.00001407     -4450.9519297770 -4.82E-05
    40 OT DIIS     0.15E+00    1.8     0.00001593     -4450.9519909128 -6.11E-05
    41 OT DIIS     0.15E+00    1.9     0.00001713     -4450.9520743240 -8.34E-05
    42 OT SD       0.15E+00    2.0     0.00001449     -4450.9523939326 -3.20E-04
    43 OT DIIS     0.15E+00    2.0     0.00005590     -4450.9523461841  4.77E-05
    44 OT DIIS     0.15E+00    2.0     0.00001503     -4450.9526629296 -3.17E-04
    45 OT DIIS     0.15E+00    2.0     0.00001207     -4450.9527923358 -1.29E-04
    46 OT DIIS     0.15E+00    2.0     0.00001220     -4450.9527958516 -3.52E-06
    47 OT DIIS     0.15E+00    1.8     0.00001194     -4450.9527995830 -3.73E-06
    48 OT DIIS     0.15E+00    2.0     0.00001217     -4450.9528584660 -5.89E-05
    49 OT SD       0.15E+00    2.0     0.00001046     -4450.9530035128 -1.45E-04
    50 OT DIIS     0.15E+00    2.0     0.00003919     -4450.9529898665  1.36E-05

  Leaving inner SCF loop after reaching    50 steps.


  Electronic density on regular grids:      -1484.0000000220       -0.0000000220
  Core density on regular grids:             1483.9999999310       -0.0000000690
  Total charge density on r-space grids:       -0.0000000910
  Total charge density g-space grids:          -0.0000000910

  Overlap energy of the core charge distribution:               0.11027509620059
  Self energy of the core charge distribution:             -10331.29031661960289
  Core Hamiltonian energy:                                   2711.38335076777457
  Hartree energy:                                            3961.59841360463406
  Exchange-correlation energy:                               -792.05491248129010
  Dispersion energy:                                           -0.69980023416941

  Total energy:                                             -4450.95298986645412

  outer SCF iter =    3 RMS gradient =   0.39E-04 energy =      -4450.9529898665

  ----------------------------------- OT ---------------------------------------
  Minimizer      : DIIS                : direct inversion
                                         in the iterative subspace
                                         using   7 DIIS vectors
                                         safer DIIS on
  Preconditioner : FULL_SINGLE         : diagonalization based
  Precond_solver : DEFAULT
  stepsize       :    0.15000000                  energy_gap     :    0.20000000
  eps_taylor     :   0.10000E-15                  max_taylor     :             4
  ----------------------------------- OT ---------------------------------------

  Step     Update method      Time    Convergence         Total energy    Change
  ------------------------------------------------------------------------------
     1 OT DIIS     0.15E+00    8.3     0.00001031     -4450.9530363504 -4.65E-05
     2 OT DIIS     0.15E+00    1.8     0.00003559     -4450.9530308236  5.53E-06
     3 OT DIIS     0.15E+00    1.8     0.00000985     -4450.9530658337 -3.50E-05

  *** SCF run converged in     3 steps ***


  Electronic density on regular grids:      -1484.0000000219       -0.0000000219
  Core density on regular grids:             1483.9999999310       -0.0000000690
  Total charge density on r-space grids:       -0.0000000910
  Total charge density g-space grids:          -0.0000000910

  Overlap energy of the core charge distribution:               0.11027509620059
  Self energy of the core charge distribution:             -10331.29031661960289
  Core Hamiltonian energy:                                   2711.38414281436008
  Hartree energy:                                            3961.59788213201955
  Exchange-correlation energy:                               -792.05524902255024
  Dispersion energy:                                           -0.69980023416941

  Total energy:                                             -4450.95306583374258

  outer SCF iter =    4 RMS gradient =   0.99E-05 energy =      -4450.9530658337
  outer SCF loop converged in   4 iterations or  153 steps


 ENERGY| Total FORCE_EVAL ( QS ) energy [a.u.]:            -4450.953073331596897

 --------  Informations at step =     0 ------------
  Optimization Method        =                 BFGS
  Total Energy               =     -4450.9530733316
  Used time                  =              333.447
 ---------------------------------------------------

 --------------------------
 OPTIMIZATION STEP:      1
 --------------------------

  Step is scaled; Scaling factor =  0.02951

 Number of electrons:                                                       1484
 Number of occupied orbitals:                                                742
 Number of molecular orbitals:                                               742

 Number of orbital functions:                                               3388
 Number of independent orbital functions:                                   3388

 Extrapolation method: ASPC


 SCF WAVEFUNCTION OPTIMIZATION

  ----------------------------------- OT ---------------------------------------
  Minimizer      : DIIS                : direct inversion
                                         in the iterative subspace
                                         using   7 DIIS vectors
                                         safer DIIS on
  Preconditioner : FULL_SINGLE         : diagonalization based
  Precond_solver : DEFAULT
  stepsize       :    0.15000000                  energy_gap     :    0.20000000
  eps_taylor     :   0.10000E-15                  max_taylor     :             4
  ----------------------------------- OT ---------------------------------------

  Step     Update method      Time    Convergence         Total energy    Change
  ------------------------------------------------------------------------------
     1 OT DIIS     0.15E+00    6.1     0.00084971     -4453.2038305678 -4.45E+03
     2 OT DIIS     0.15E+00    1.9     0.00364086     -4452.8522948868  3.52E-01
     3 OT DIIS     0.15E+00    2.1     0.00092788     -4453.2262276639 -3.74E-01
     4 OT DIIS     0.15E+00    1.9     0.00040205     -4453.2486868228 -2.25E-02
     5 OT DIIS     0.15E+00    1.8     0.00030846     -4453.2524682356 -3.78E-03
     6 OT DIIS     0.15E+00    1.8     0.00021451     -4453.2553211440 -2.85E-03
     7 OT DIIS     0.15E+00    2.1     0.00011601     -4453.2572046795 -1.88E-03
     8 OT DIIS     0.15E+00    2.1     0.00010277     -4453.2582006342 -9.96E-04
     9 OT DIIS     0.15E+00    1.9     0.00008459     -4453.2590350576 -8.34E-04
    10 OT DIIS     0.15E+00    1.8     0.00007773     -4453.2598492491 -8.14E-04
    11 OT DIIS     0.15E+00    1.8     0.00009248     -4453.2604467743 -5.98E-04
    12 OT DIIS     0.15E+00    2.1     0.00008836     -4453.2611247095 -6.78E-04
    13 OT DIIS     0.15E+00    1.8     0.00007776     -4453.2619010272 -7.76E-04
    14 OT DIIS     0.15E+00    2.1     0.00008742     -4453.2623260253 -4.25E-04
    15 OT DIIS     0.15E+00    2.0     0.00007135     -4453.2625983231 -2.72E-04
    16 OT DIIS     0.15E+00    2.1     0.00006712     -4453.2630527281 -4.54E-04
    17 OT DIIS     0.15E+00    2.1     0.00006012     -4453.2635163906 -4.64E-04
    18 OT DIIS     0.15E+00    2.0     0.00005398     -4453.2634839539  3.24E-05
    19 OT DIIS     0.15E+00    2.0     0.00005039     -4453.2637652160 -2.81E-04
    20 OT DIIS     0.15E+00    2.1     0.00004588     -4453.2640204154 -2.55E-04
    21 OT DIIS     0.15E+00    1.9     0.00004158     -4453.2642862165 -2.66E-04
    22 OT DIIS     0.15E+00    1.8     0.00004294     -4453.2645515714 -2.65E-04
    23 OT DIIS     0.15E+00    2.0     0.00004121     -4453.2647557279 -2.04E-04
    24 OT DIIS     0.15E+00    2.1     0.00003983     -4453.2650844833 -3.29E-04
    25 OT SD       0.15E+00    2.0     0.00003872     -4453.2654747954 -3.90E-04
    26 OT DIIS     0.15E+00    1.9     0.00008036     -4453.2658257364 -3.51E-04
    27 OT SD       0.15E+00    2.1     0.00003722     -4453.2658657971 -4.01E-05
    28 OT SD       0.15E+00    1.9     0.00005643     -4453.2663184757 -4.53E-04
    29 OT DIIS     0.15E+00    2.1     0.00025713     -4453.2651539228  1.16E-03
    30 OT SD       0.15E+00    1.9     0.00003921     -4453.2654366915 -2.83E-04
    31 OT SD       0.15E+00    1.9     0.00008338     -4453.2657582389 -3.22E-04
    32 OT DIIS     0.15E+00    2.0     0.00040136     -4453.2617747129  3.98E-03
    33 OT SD       0.15E+00    2.0     0.00004390     -4453.2631444810 -1.37E-03
    34 OT DIIS     0.15E+00    2.0     0.00012728     -4453.2631393298  5.15E-06
    35 OT SD       0.15E+00    2.0     0.00004003     -4453.2638392935 -7.00E-04
    36 OT SD       0.15E+00    2.0     0.00012681     -4453.2638830972 -4.38E-05
    37 OT DIIS     0.15E+00    2.1     0.00077208     -4453.2495178716  1.44E-02
    38 OT DIIS     0.15E+00    2.1     0.00004222     -4453.2635099766 -1.40E-02
    39 OT DIIS     0.15E+00    2.1     0.00003611     -4453.2646501093 -1.14E-03
    40 OT SD       0.15E+00    2.1     0.00003567     -4453.2651596943 -5.10E-04
    41 OT SD       0.15E+00    1.8     0.00007085     -4453.2654802987 -3.21E-04
    42 OT DIIS     0.15E+00    2.0     0.00035535     -4453.2625795898  2.90E-03
    43 OT SD       0.15E+00    2.0     0.00003608     -4453.2648771380 -2.30E-03
    44 OT SD       0.15E+00    2.0     0.00007296     -4453.2651736217 -2.96E-04
    45 OT DIIS     0.15E+00    2.0     0.00034682     -4453.2622870697  2.89E-03
    46 OT SD       0.15E+00    2.0     0.00003521     -4453.2648009720 -2.51E-03
    47 OT SD       0.15E+00    2.0     0.00007066     -4453.2651157273 -3.15E-04
    48 OT DIIS     0.15E+00    2.1     0.00038078     -4453.2618800032  3.24E-03
    49 OT DIIS     0.15E+00    2.1     0.00003584     -4453.2651938615 -3.31E-03
    50 OT SD       0.15E+00    1.8     0.00003685     -4453.2652216430 -2.78E-05

  Leaving inner SCF loop after reaching    50 steps.


  Electronic density on regular grids:      -1484.0000054767       -0.0000054767
  Core density on regular grids:             1483.9999999311       -0.0000000689
  Total charge density on r-space grids:       -0.0000055457
  Total charge density g-space grids:          -0.0000055457

  Overlap energy of the core charge distribution:               0.03334105889031
  Self energy of the core charge distribution:             -10331.29031661960289
  Core Hamiltonian energy:                                   2708.95430039613802
  Hartree energy:                                            3961.51173651680392
  Exchange-correlation energy:                               -791.77465002059330
  Dispersion energy:                                           -0.69963297460726

  Total energy:                                             -4453.26522164297148

  outer SCF iter =    1 RMS gradient =   0.37E-04 energy =      -4453.2652216430

  ----------------------------------- OT ---------------------------------------
  Minimizer      : DIIS                : direct inversion
                                         in the iterative subspace
                                         using   7 DIIS vectors
                                         safer DIIS on
  Preconditioner : FULL_SINGLE         : diagonalization based
  Precond_solver : DEFAULT
  stepsize       :    0.15000000                  energy_gap     :    0.20000000
  eps_taylor     :   0.10000E-15                  max_taylor     :             4
  ----------------------------------- OT ---------------------------------------

  Step     Update method      Time    Convergence         Total energy    Change
  ------------------------------------------------------------------------------
     1 OT DIIS     0.15E+00    8.0     0.00009282     -4453.2654353379 -2.14E-04
     2 OT DIIS     0.15E+00    1.9     0.00048897     -4453.2594141728  6.02E-03
     3 OT DIIS     0.15E+00    2.0     0.00005711     -4453.2660960777 -6.68E-03
     4 OT SD       0.15E+00    1.9     0.00003575     -4453.2662391667 -1.43E-04
     5 OT SD       0.15E+00    1.8     0.00004725     -4453.2666813887 -4.42E-04
     6 OT SD       0.15E+00    2.1     0.00017252     -4453.2664109845  2.70E-04
     7 OT DIIS     0.15E+00    2.0     0.00100401     -4453.2407649190  2.56E-02
     8 OT DIIS     0.15E+00    1.9     0.00012228     -4453.2592339063 -1.85E-02
     9 OT SD       0.15E+00    2.1     0.00004460     -4453.2648149608 -5.58E-03
    10 OT SD       0.15E+00    2.0     0.00014466     -4453.2646561067  1.59E-04
    11 OT DIIS     0.15E+00    1.8     0.00079792     -4453.2481400938  1.65E-02
    12 OT DIIS     0.15E+00    1.9     0.00011533     -4453.2599778177 -1.18E-02
    13 OT DIIS     0.15E+00    1.8     0.00004362     -4453.2649583573 -4.98E-03
    14 OT DIIS     0.15E+00    2.0     0.00004054     -4453.2657362129 -7.78E-04
    15 OT SD       0.15E+00    2.0     0.00004173     -4453.2663154266 -5.79E-04
    16 OT DIIS     0.15E+00    1.9     0.00010134     -4453.2664994539 -1.84E-04
    17 OT DIIS     0.15E+00    2.0     0.00005119     -4453.2669398766 -4.40E-04
    18 OT DIIS     0.15E+00    2.1     0.00004597     -4453.2671259689 -1.86E-04
    19 OT SD       0.15E+00    2.1     0.00004488     -4453.2674667291 -3.41E-04
    20 OT SD       0.15E+00    2.1     0.00010951     -4453.2677244427 -2.58E-04
    21 OT DIIS     0.15E+00    1.9     0.00061478     -4453.2587841042  8.94E-03
    22 OT DIIS     0.15E+00    2.0     0.00014163     -4453.2590319988 -2.48E-04
    23 OT DIIS     0.15E+00    2.1     0.00006927     -4453.2692477264 -1.02E-02
    24 OT DIIS     0.15E+00    2.1     0.00009507     -4453.2712198345 -1.97E-03
    25 OT DIIS     0.15E+00    2.1     0.00021136     -4453.2742473748 -3.03E-03
    26 OT DIIS     0.15E+00    2.2     0.00025868     -4453.2752139885 -9.67E-04
    27 OT DIIS     0.15E+00    2.1     0.00014181     -4453.2766960444 -1.48E-03
    28 OT DIIS     0.15E+00    2.1     0.00032153     -4453.2747107431  1.99E-03
    29 OT DIIS     0.15E+00    2.1     0.00035732     -4453.2739141311  7.97E-04
    30 OT DIIS     0.15E+00    2.0     0.00012497     -4453.2698385025  4.08E-03
    31 OT DIIS     0.15E+00    1.9     0.00027404     -4453.2709083706 -1.07E-03
    32 OT DIIS     0.15E+00    2.1     0.00016124     -4453.2753068028 -4.40E-03
    33 OT DIIS     0.15E+00    2.1     0.00011938     -4453.2743416151  9.65E-04
    34 OT DIIS     0.15E+00    2.0     0.00011460     -4453.2744126110 -7.10E-05
    35 OT SD       0.15E+00    2.0     0.00006317     -4453.2750450657 -6.32E-04
    36 OT DIIS     0.15E+00    2.1     0.00015596     -4453.2752295906 -1.85E-04
    37 OT DIIS     0.15E+00    2.1     0.00005917     -4453.2761815030 -9.52E-04
    38 OT DIIS     0.15E+00    2.1     0.00005174     -4453.2764702545 -2.89E-04
    39 OT DIIS     0.15E+00    2.2     0.00005017     -4453.2766570515 -1.87E-04
    40 OT DIIS     0.15E+00    2.1     0.00005037     -4453.2766848493 -2.78E-05
    41 OT DIIS     0.15E+00    2.1     0.00004972     -4453.2767706506 -8.58E-05
    42 OT DIIS     0.15E+00    2.1     0.00004993     -4453.2768370398 -6.64E-05
    43 OT DIIS     0.15E+00    2.1     0.00005043     -4453.2776415884 -8.05E-04
    44 OT DIIS     0.15E+00    2.0     0.00004988     -4453.2779923713 -3.51E-04
    45 OT DIIS     0.15E+00    2.1     0.00005052     -4453.2788654237 -8.73E-04
    46 OT DIIS     0.15E+00    1.8     0.00008435     -4453.2842570977 -5.39E-03
    47 OT SD       0.15E+00    2.2     0.00006007     -4453.2850602000 -8.03E-04
    48 OT SD       0.15E+00    2.1     0.00015660     -4453.2846218542  4.38E-04
    49 OT DIIS     0.15E+00    2.0     0.00082587     -4453.2666247786  1.80E-02
    50 OT DIIS     0.15E+00    2.1     0.00004124     -4453.2856902269 -1.91E-02

  Leaving inner SCF loop after reaching    50 steps.


  Electronic density on regular grids:      -1484.0000000188       -0.0000000188
  Core density on regular grids:             1483.9999999311       -0.0000000689
  Total charge density on r-space grids:       -0.0000000877
  Total charge density g-space grids:          -0.0000000877

  Overlap energy of the core charge distribution:               0.03334105889031
  Self energy of the core charge distribution:             -10331.29031661960289
  Core Hamiltonian energy:                                   2709.07441792363397
  Hartree energy:                                            3961.37081827176416
  Exchange-correlation energy:                               -791.77431788702233
  Dispersion energy:                                           -0.69963297460726

  Total energy:                                             -4453.28569022694501

  outer SCF iter =    2 RMS gradient =   0.41E-04 energy =      -4453.2856902269

  ----------------------------------- OT ---------------------------------------
  Minimizer      : DIIS                : direct inversion
                                         in the iterative subspace
                                         using   7 DIIS vectors
                                         safer DIIS on
  Preconditioner : FULL_SINGLE         : diagonalization based
  Precond_solver : DEFAULT
  stepsize       :    0.15000000                  energy_gap     :    0.20000000
  eps_taylor     :   0.10000E-15                  max_taylor     :             4
  ----------------------------------- OT ---------------------------------------

  Step     Update method      Time    Convergence         Total energy    Change
  ------------------------------------------------------------------------------
     1 OT DIIS     0.15E+00    8.4     0.00003565     -4453.2858862180 -1.96E-04
     2 OT DIIS     0.15E+00    2.0     0.00015828     -4453.2853001812  5.86E-04
     3 OT DIIS     0.15E+00    1.9     0.00003341     -4453.2859804836 -6.80E-04
     4 OT DIIS     0.15E+00    1.9     0.00002020     -4453.2860284303 -4.79E-05
     5 OT DIIS     0.15E+00    2.1     0.00001611     -4453.2860519419 -2.35E-05
     6 OT DIIS     0.15E+00    1.9     0.00001569     -4453.2860915622 -3.96E-05
     7 OT DIIS     0.15E+00    1.9     0.00001425     -4453.2861385482 -4.70E-05
     8 OT DIIS     0.15E+00    2.1     0.00001024     -4453.2861747333 -3.62E-05
     9 OT DIIS     0.15E+00    1.8     0.00001300     -4453.2861980823 -2.33E-05
    10 OT DIIS     0.15E+00    2.1     0.00001004     -4453.2862311218 -3.30E-05
    11 OT DIIS     0.15E+00    2.0     0.00001067     -4453.2862465741 -1.55E-05
    12 OT DIIS     0.15E+00    2.1     0.00000985     -4453.2862576902 -1.11E-05

  *** SCF run converged in    12 steps ***


  Electronic density on regular grids:      -1484.0000000188       -0.0000000188
  Core density on regular grids:             1483.9999999311       -0.0000000689
  Total charge density on r-space grids:       -0.0000000878
  Total charge density g-space grids:          -0.0000000878

  Overlap energy of the core charge distribution:               0.03334105889031
  Self energy of the core charge distribution:             -10331.29031661960289
  Core Hamiltonian energy:                                   2709.06823873215671
  Hartree energy:                                            3961.37360829456611
  Exchange-correlation energy:                               -791.77149618158955
  Dispersion energy:                                           -0.69963297460726

  Total energy:                                             -4453.28625769018618

  outer SCF iter =    3 RMS gradient =   0.99E-05 energy =      -4453.2862576902
  outer SCF loop converged in   3 iterations or  112 steps


 ENERGY| Total FORCE_EVAL ( QS ) energy [a.u.]:            -4453.286280263637309

 --------  Informations at step =     1 ------------
  Optimization Method        =                 BFGS
  Total Energy               =     -4453.2862802636
  Real energy change         =        -2.3332069320
  Predicted change in energy =        -2.7625268332
  Scaling factor             =         0.0295089438
  Step size                  =         0.0944863066
  Trust radius               =         0.0944863066
  Decrease in energy         =                  YES
  Used time                  =              247.181

  Convergence check :
  Max. step size             =         0.0944863066
  Conv. limit for step size  =         0.0030000000
  Convergence in step size   =                   NO
  RMS step size              =         0.0078320224
  Conv. limit for RMS step   =         0.0015000000
  Convergence in RMS step    =                   NO
  Max. gradient              =         8.6954784920
  Conv. limit for gradients  =         0.0004500000
  Conv. for gradients        =                   NO
  RMS gradient               =         0.5445967159
  Conv. limit for RMS grad.  =         0.0003000000
  Conv. for gradients        =                   NO
 ---------------------------------------------------

 --------------------------
 OPTIMIZATION STEP:      2
 --------------------------

  Step is scaled; Scaling factor =  0.08650

 Number of electrons:                                                       1484
 Number of occupied orbitals:                                                742
 Number of molecular orbitals:                                               742

 Number of orbital functions:                                               3388
 Number of independent orbital functions:                                   3388

 Extrapolation method: ASPC


 SCF WAVEFUNCTION OPTIMIZATION

  ----------------------------------- OT ---------------------------------------
  Minimizer      : DIIS                : direct inversion
                                         in the iterative subspace
                                         using   7 DIIS vectors
                                         safer DIIS on
  Preconditioner : FULL_SINGLE         : diagonalization based
  Precond_solver : DEFAULT
  stepsize       :    0.15000000                  energy_gap     :    0.20000000
  eps_taylor     :   0.10000E-15                  max_taylor     :             4
  ----------------------------------- OT ---------------------------------------

  Step     Update method      Time    Convergence         Total energy    Change
  ------------------------------------------------------------------------------
     1 OT DIIS     0.15E+00    6.1     0.00088823     -4454.3090778855 -4.45E+03
     2 OT DIIS     0.15E+00    1.9     0.00268105     -4454.1289976315  1.80E-01
     3 OT DIIS     0.15E+00    2.1     0.00117139     -4454.3507291361 -2.22E-01
     4 OT DIIS     0.15E+00    2.1     0.00060714     -4454.3812539900 -3.05E-02
     5 OT DIIS     0.15E+00    2.0     0.00042057     -4454.3895718173 -8.32E-03
     6 OT DIIS     0.15E+00    2.2     0.00027237     -4454.3941620972 -4.59E-03
     7 OT DIIS     0.15E+00    2.1     0.00015423     -4454.3966195560 -2.46E-03
     8 OT DIIS     0.15E+00    1.9     0.00010857     -4454.3976944699 -1.07E-03
     9 OT DIIS     0.15E+00    1.8     0.00009931     -4454.3982698392 -5.75E-04
    10 OT DIIS     0.15E+00    2.1     0.00007623     -4454.3989042098 -6.34E-04
    11 OT DIIS     0.15E+00    1.9     0.00008358     -4454.3991740652 -2.70E-04
    12 OT DIIS     0.15E+00    2.1     0.00007956     -4454.3995384039 -3.64E-04
    13 OT DIIS     0.15E+00    2.1     0.00006751     -4454.4000005151 -4.62E-04
    14 OT DIIS     0.15E+00    1.9     0.00007227     -4454.4002450673 -2.45E-04
    15 OT DIIS     0.15E+00    2.0     0.00005950     -4454.4004424489 -1.97E-04
    16 OT DIIS     0.15E+00    2.2     0.00005188     -4454.4006360003 -1.94E-04
    17 OT DIIS     0.15E+00    2.2     0.00004834     -4454.4009635899 -3.28E-04
    18 OT DIIS     0.15E+00    2.2     0.00004411     -4454.4010240855 -6.05E-05
    19 OT DIIS     0.15E+00    1.9     0.00004223     -4454.4011587730 -1.35E-04
    20 OT DIIS     0.15E+00    2.0     0.00003848     -4454.4013042389 -1.45E-04
    21 OT DIIS     0.15E+00    1.9     0.00003397     -4454.4014907839 -1.87E-04
    22 OT DIIS     0.15E+00    2.1     0.00003473     -4454.4016588068 -1.68E-04
    23 OT DIIS     0.15E+00    2.0     0.00003336     -4454.4017841056 -1.25E-04
    24 OT DIIS     0.15E+00    2.1     0.00003212     -4454.4019346571 -1.51E-04
    25 OT DIIS     0.15E+00    2.1     0.00003065     -4454.4021916729 -2.57E-04
    26 OT DIIS     0.15E+00    2.1     0.00003188     -4454.4022541815 -6.25E-05
    27 OT DIIS     0.15E+00    2.0     0.00003118     -4454.4023997841 -1.46E-04
    28 OT DIIS     0.15E+00    1.9     0.00003027     -4454.4025093346 -1.10E-04
    29 OT DIIS     0.15E+00    2.1     0.00002890     -4454.4026137845 -1.04E-04
    30 OT DIIS     0.15E+00    1.9     0.00002865     -4454.4027556472 -1.42E-04
    31 OT DIIS     0.15E+00    2.1     0.00002856     -4454.4028926528 -1.37E-04
    32 OT DIIS     0.15E+00    2.1     0.00002842     -4454.4030327586 -1.40E-04
    33 OT DIIS     0.15E+00    2.1     0.00002804     -4454.4031978840 -1.65E-04
    34 OT DIIS     0.15E+00    2.1     0.00002835     -4454.4034926636 -2.95E-04
    35 OT DIIS     0.15E+00    1.9     0.00002856     -4454.4037152925 -2.23E-04
    36 OT DIIS     0.15E+00    2.1     0.00002873     -4454.4040219394 -3.07E-04
    37 OT DIIS     0.15E+00    2.1     0.00002860     -4454.4044143584 -3.92E-04
    38 OT DIIS     0.15E+00    2.2     0.00002885     -4454.4048273584 -4.13E-04
    39 OT DIIS     0.15E+00    1.9     0.00002985     -4454.4053204045 -4.93E-04
    40 OT DIIS     0.15E+00    2.0     0.00002922     -4454.4058553785 -5.35E-04
    41 OT DIIS     0.15E+00    2.0     0.00002556     -4454.4062722168 -4.17E-04
    42 OT DIIS     0.15E+00    2.1     0.00002820     -4454.4065301765 -2.58E-04
    43 OT DIIS     0.15E+00    2.0     0.00003315     -4454.4070185946 -4.88E-04
    44 OT DIIS     0.15E+00    2.1     0.00002986     -4454.4072994019 -2.81E-04
    45 OT DIIS     0.15E+00    2.1     0.00002393     -4454.4074860618 -1.87E-04
    46 OT DIIS     0.15E+00    2.1     0.00002583     -4454.4076903740 -2.04E-04
    47 OT DIIS     0.15E+00    2.1     0.00002035     -4454.4078354753 -1.45E-04
    48 OT DIIS     0.15E+00    2.2     0.00001785     -4454.4079987932 -1.63E-04
    49 OT DIIS     0.15E+00    2.1     0.00001988     -4454.4081316528 -1.33E-04
    50 OT DIIS     0.15E+00    2.0     0.00002377     -4454.4082883602 -1.57E-04

  Leaving inner SCF loop after reaching    50 steps.


  Electronic density on regular grids:      -1483.9999999947        0.0000000053
  Core density on regular grids:             1483.9999999310       -0.0000000690
  Total charge density on r-space grids:       -0.0000000637
  Total charge density g-space grids:          -0.0000000637

  Overlap energy of the core charge distribution:               0.02485191493521
  Self energy of the core charge distribution:             -10331.29031661960289
  Core Hamiltonian energy:                                   2706.40924773836196
  Hartree energy:                                            3962.60507806819805
  Exchange-correlation energy:                               -791.45803629934926
  Dispersion energy:                                           -0.69911316278496

  Total energy:                                             -4454.40828836024139

  outer SCF iter =    1 RMS gradient =   0.24E-04 energy =      -4454.4082883602

  ----------------------------------- OT ---------------------------------------
  Minimizer      : DIIS                : direct inversion
                                         in the iterative subspace
                                         using   7 DIIS vectors
                                         safer DIIS on
  Preconditioner : FULL_SINGLE         : diagonalization based
  Precond_solver : DEFAULT
  stepsize       :    0.15000000                  energy_gap     :    0.20000000
  eps_taylor     :   0.10000E-15                  max_taylor     :             4
  ----------------------------------- OT ---------------------------------------

  Step     Update method      Time    Convergence         Total energy    Change
  ------------------------------------------------------------------------------
     1 OT DIIS     0.15E+00    8.4     0.00001931     -4454.4083421732 -5.38E-05
     2 OT DIIS     0.15E+00    1.9     0.00007625     -4454.4082193412  1.23E-04
     3 OT DIIS     0.15E+00    2.1     0.00001928     -4454.4083900754 -1.71E-04
     4 OT DIIS     0.15E+00    2.1     0.00001187     -4454.4084070625 -1.70E-05
     5 OT DIIS     0.15E+00    2.1     0.00001200     -4454.4084252799 -1.82E-05
     6 OT DIIS     0.15E+00    2.1     0.00001194     -4454.4084710829 -4.58E-05
     7 OT DIIS     0.15E+00    2.1     0.00001106     -4454.4085121135 -4.10E-05
     8 OT DIIS     0.15E+00    2.1     0.00000792     -4454.4085410585 -2.89E-05

  *** SCF run converged in     8 steps ***


  Electronic density on regular grids:      -1483.9999999947        0.0000000053
  Core density on regular grids:             1483.9999999310       -0.0000000690
  Total charge density on r-space grids:       -0.0000000637
  Total charge density g-space grids:          -0.0000000637

  Overlap energy of the core charge distribution:               0.02485191493521
  Self energy of the core charge distribution:             -10331.29031661960289
  Core Hamiltonian energy:                                   2706.41512790792513
  Hartree energy:                                            3962.59889926413780
  Exchange-correlation energy:                               -791.45799036311269
  Dispersion energy:                                           -0.69911316278496

  Total energy:                                             -4454.40854105850212

  outer SCF iter =    2 RMS gradient =   0.79E-05 energy =      -4454.4085410585
  outer SCF loop converged in   2 iterations or   58 steps


 ENERGY| Total FORCE_EVAL ( QS ) energy [a.u.]:            -4454.408553121690602

 --------  Informations at step =     2 ------------
  Optimization Method        =                 BFGS
  Total Energy               =     -4454.4085531217
  Real energy change         =        -1.1222728581
  Predicted change in energy =        -1.0474436234
  Scaling factor             =         0.0865031504
  Step size                  =         0.0944863066
  Trust radius               =         0.0944863066
  Decrease in energy         =                  YES
  Used time                  =              137.745

  Convergence check :
  Max. step size             =         0.0944863066
  Conv. limit for step size  =         0.0030000000
  Convergence in step size   =                   NO
  RMS step size              =         0.0189179372
  Conv. limit for RMS step   =         0.0015000000
  Convergence in RMS step    =                   NO
  Max. gradient              =         8.1288187272
  Conv. limit for gradients  =         0.0004500000
  Conv. for gradients        =                   NO
  RMS gradient               =         0.5056037382
  Conv. limit for RMS grad.  =         0.0003000000
  Conv. for gradients        =                   NO
 ---------------------------------------------------

 --------------------------
 OPTIMIZATION STEP:      3
 --------------------------

  Step is scaled; Scaling factor =  0.00000

 Number of electrons:                                                       1484
 Number of occupied orbitals:                                                742
 Number of molecular orbitals:                                               742

 Number of orbital functions:                                               3388
 Number of independent orbital functions:                                   3388

 Extrapolation method: ASPC


 SCF WAVEFUNCTION OPTIMIZATION

  ----------------------------------- OT ---------------------------------------
  Minimizer      : DIIS                : direct inversion
                                         in the iterative subspace
                                         using   7 DIIS vectors
                                         safer DIIS on
  Preconditioner : FULL_SINGLE         : diagonalization based
  Precond_solver : DEFAULT
  stepsize       :    0.15000000                  energy_gap     :    0.20000000
  eps_taylor     :   0.10000E-15                  max_taylor     :             4
  ----------------------------------- OT ---------------------------------------

  Step     Update method      Time    Convergence         Total energy    Change
  ------------------------------------------------------------------------------
     1 OT DIIS     0.15E+00    6.1     0.00187231     -4455.1269222107 -4.46E+03
     2 OT DIIS     0.15E+00    2.1     0.00619732     -4454.3146369881  8.12E-01
     3 OT DIIS     0.15E+00    2.3     0.00255818     -4455.3101080187 -9.95E-01
     4 OT DIIS     0.15E+00    2.2     0.00140703     -4455.4427236341 -1.33E-01
     5 OT DIIS     0.15E+00    2.2     0.00088992     -4455.4894650460 -4.67E-02
     6 OT DIIS     0.15E+00    2.1     0.00052971     -4455.5112829790 -2.18E-02
     7 OT DIIS     0.15E+00    2.0     0.00031728     -4455.5194123868 -8.13E-03
     8 OT DIIS     0.15E+00    1.9     0.00023372     -4455.5219363503 -2.52E-03
     9 OT DIIS     0.15E+00    2.2     0.00016504     -4455.5232940423 -1.36E-03
    10 OT DIIS     0.15E+00    2.0     0.00011302     -4455.5243931937 -1.10E-03
    11 OT DIIS     0.15E+00    2.2     0.00011345     -4455.5248108514 -4.18E-04
    12 OT DIIS     0.15E+00    2.3     0.00010013     -4455.5251240562 -3.13E-04
    13 OT DIIS     0.15E+00    2.2     0.00007977     -4455.5255267870 -4.03E-04
    14 OT DIIS     0.15E+00    2.2     0.00007058     -4455.5258322482 -3.05E-04
    15 OT DIIS     0.15E+00    1.9     0.00006381     -4455.5260565137 -2.24E-04
    16 OT DIIS     0.15E+00    2.2     0.00006203     -4455.5262551601 -1.99E-04
    17 OT DIIS     0.15E+00    1.9     0.00005719     -4455.5265009797 -2.46E-04
    18 OT DIIS     0.15E+00    2.2     0.00005120     -4455.5265845567 -8.36E-05
    19 OT DIIS     0.15E+00    2.0     0.00005244     -4455.5267320341 -1.47E-04
    20 OT DIIS     0.15E+00    2.2     0.00005293     -4455.5268209931 -8.90E-05
    21 OT DIIS     0.15E+00    1.9     0.00004363     -4455.5269203116 -9.93E-05
    22 OT DIIS     0.15E+00    2.0     0.00003816     -4455.5270091318 -8.88E-05
    23 OT DIIS     0.15E+00    2.2     0.00003477     -4455.5270826218 -7.35E-05
    24 OT DIIS     0.15E+00    2.2     0.00003225     -4455.5271592471 -7.66E-05
    25 OT DIIS     0.15E+00    1.9     0.00003027     -4455.5272609474 -1.02E-04
    26 OT DIIS     0.15E+00    2.0     0.00003045     -4455.5272838123 -2.29E-05
    27 OT DIIS     0.15E+00    2.1     0.00003034     -4455.5273616163 -7.78E-05
    28 OT DIIS     0.15E+00    1.9     0.00003254     -4455.5274148422 -5.32E-05
    29 OT DIIS     0.15E+00    1.8     0.00002990     -4455.5274497776 -3.49E-05
    30 OT DIIS     0.15E+00    2.0     0.00002685     -4455.5274904460 -4.07E-05
    31 OT DIIS     0.15E+00    1.9     0.00002497     -4455.5275231376 -3.27E-05
    32 OT DIIS     0.15E+00    1.8     0.00002241     -4455.5275588980 -3.58E-05
    33 OT DIIS     0.15E+00    2.0     0.00002000     -4455.5276046179 -4.57E-05
    34 OT DIIS     0.15E+00    2.1     0.00002031     -4455.5276173498 -1.27E-05
    35 OT DIIS     0.15E+00    2.2     0.00001897     -4455.5276533891 -3.60E-05
    36 OT DIIS     0.15E+00    2.1     0.00002004     -4455.5276856359 -3.22E-05
    37 OT DIIS     0.15E+00    2.2     0.00001978     -4455.5277050317 -1.94E-05
    38 OT DIIS     0.15E+00    2.0     0.00001867     -4455.5277277937 -2.28E-05
    39 OT DIIS     0.15E+00    2.1     0.00001829     -4455.5277500316 -2.22E-05
    40 OT DIIS     0.15E+00    2.1     0.00001731     -4455.5277710899 -2.11E-05
    41 OT DIIS     0.15E+00    2.0     0.00001537     -4455.5277922666 -2.12E-05
    42 OT DIIS     0.15E+00    2.1     0.00001578     -4455.5278036149 -1.13E-05
    43 OT DIIS     0.15E+00    2.2     0.00001431     -4455.5278198861 -1.63E-05
    44 OT DIIS     0.15E+00    2.1     0.00001417     -4455.5278383604 -1.85E-05
    45 OT DIIS     0.15E+00    2.0     0.00001374     -4455.5278499882 -1.16E-05
    46 OT DIIS     0.15E+00    2.1     0.00001309     -4455.5278630123 -1.30E-05
    47 OT DIIS     0.15E+00    2.0     0.00001280     -4455.5278784152 -1.54E-05
    48 OT DIIS     0.15E+00    2.1     0.00001270     -4455.5278929899 -1.46E-05
    49 OT DIIS     0.15E+00    2.1     0.00001186     -4455.5279040441 -1.11E-05
    50 OT DIIS     0.15E+00    1.9     0.00001253     -4455.5279176089 -1.36E-05

  Leaving inner SCF loop after reaching    50 steps.


  Electronic density on regular grids:      -1483.9999999945        0.0000000055
  Core density on regular grids:             1483.9999999310       -0.0000000690
  Total charge density on r-space grids:       -0.0000000634
  Total charge density g-space grids:          -0.0000000634

  Overlap energy of the core charge distribution:               0.01258854902290
  Self energy of the core charge distribution:             -10331.29031661960289
  Core Hamiltonian energy:                                   2704.47531247446386
  Hartree energy:                                            3963.20496466968507
  Exchange-correlation energy:                               -791.23142213193807
  Dispersion energy:                                           -0.69904455048763

  Total energy:                                             -4455.52791760885702

  outer SCF iter =    1 RMS gradient =   0.13E-04 energy =      -4455.5279176089

  ----------------------------------- OT ---------------------------------------
  Minimizer      : DIIS                : direct inversion
                                         in the iterative subspace
                                         using   7 DIIS vectors
                                         safer DIIS on
  Preconditioner : FULL_SINGLE         : diagonalization based
  Precond_solver : DEFAULT
  stepsize       :    0.15000000                  energy_gap     :    0.20000000
  eps_taylor     :   0.10000E-15                  max_taylor     :             4
  ----------------------------------- OT ---------------------------------------

  Step     Update method      Time    Convergence         Total energy    Change
  ------------------------------------------------------------------------------
     1 OT DIIS     0.15E+00    8.6     0.00001093     -4455.5279251907 -7.58E-06
     2 OT DIIS     0.15E+00    2.0     0.00003196     -4455.5279157007  9.49E-06
     3 OT DIIS     0.15E+00    1.9     0.00001001     -4455.5279523818 -3.67E-05
     4 OT DIIS     0.15E+00    1.9     0.00000785     -4455.5279592768 -6.90E-06

  *** SCF run converged in     4 steps ***


  Electronic density on regular grids:      -1483.9999999945        0.0000000055
  Core density on regular grids:             1483.9999999310       -0.0000000690
  Total charge density on r-space grids:       -0.0000000634
  Total charge density g-space grids:          -0.0000000634

  Overlap energy of the core charge distribution:               0.01258854902290
  Self energy of the core charge distribution:             -10331.29031661960289
  Core Hamiltonian energy:                                   2704.47436949370422
  Hartree energy:                                            3963.20570543253052
  Exchange-correlation energy:                               -791.23126158193588
  Dispersion energy:                                           -0.69904455048763

  Total energy:                                             -4455.52795927676834

  outer SCF iter =    2 RMS gradient =   0.78E-05 energy =      -4455.5279592768
  outer SCF loop converged in   2 iterations or   54 steps


 ENERGY| Total FORCE_EVAL ( QS ) energy [a.u.]:            -4455.527976687014416

 --------  Informations at step =     3 ------------
  Optimization Method        =                 BFGS
  Total Energy               =     -4455.5279766870
  Real energy change         =        -1.1194235653
  Predicted change in energy =        -2.4270134650
  Scaling factor             =         0.0000041253
  Step size                  =         0.0944863066
  Trust radius               =         0.0944863066
  Decrease in energy         =                  YES
  Used time                  =              130.333

  Convergence check :
  Max. step size             =         0.0944863066
  Conv. limit for step size  =         0.0030000000
  Convergence in step size   =                   NO
  RMS step size              =         0.0087646398
  Conv. limit for RMS step   =         0.0015000000
  Convergence in RMS step    =                   NO
  Max. gradient              =         6.6313414352
  Conv. limit for gradients  =         0.0004500000
  Conv. for gradients        =                   NO
  RMS gradient               =         0.4108463081
  Conv. limit for RMS grad.  =         0.0003000000
  Conv. for gradients        =                   NO
 ---------------------------------------------------

 --------------------------
 OPTIMIZATION STEP:      4
 --------------------------

  Step is scaled; Scaling factor =  0.00000

 Number of electrons:                                                       1484
 Number of occupied orbitals:                                                742
 Number of molecular orbitals:                                               742

 Number of orbital functions:                                               3388
 Number of independent orbital functions:                                   3388

 Extrapolation method: ASPC


 SCF WAVEFUNCTION OPTIMIZATION

  ----------------------------------- OT ---------------------------------------
  Minimizer      : DIIS                : direct inversion
                                         in the iterative subspace
                                         using   7 DIIS vectors
                                         safer DIIS on
  Preconditioner : FULL_SINGLE         : diagonalization based
  Precond_solver : DEFAULT
  stepsize       :    0.15000000                  energy_gap     :    0.20000000
  eps_taylor     :   0.10000E-15                  max_taylor     :             4
  ----------------------------------- OT ---------------------------------------

  Step     Update method      Time    Convergence         Total energy    Change
  ------------------------------------------------------------------------------
     1 OT DIIS     0.15E+00    6.2     0.00113381     -4456.1961092932 -4.46E+03
     2 OT DIIS     0.15E+00    1.9     0.00321301     -4455.9903276692  2.06E-01
     3 OT DIIS     0.15E+00    2.3     0.00136837     -4456.2903770898 -3.00E-01
     4 OT DIIS     0.15E+00    2.2     0.00066349     -4456.3421216249 -5.17E-02
     5 OT DIIS     0.15E+00    2.1     0.00048551     -4456.3560969260 -1.40E-02
     6 OT DIIS     0.15E+00    2.2     0.00031386     -4456.3644054426 -8.31E-03
     7 OT DIIS     0.15E+00    2.2     0.00021738     -4456.3685400662 -4.13E-03
     8 OT DIIS     0.15E+00    2.1     0.00014529     -4456.3711813530 -2.64E-03
     9 OT DIIS     0.15E+00    2.0     0.00013214     -4456.3727307179 -1.55E-03
    10 OT DIIS     0.15E+00    2.2     0.00010613     -4456.3738693035 -1.14E-03
    11 OT DIIS     0.15E+00    2.3     0.00011819     -4456.3748498247 -9.81E-04
    12 OT DIIS     0.15E+00    2.3     0.00010179     -4456.3754946168 -6.45E-04
    13 OT DIIS     0.15E+00    2.3     0.00008826     -4456.3763132891 -8.19E-04
    14 OT DIIS     0.15E+00    1.9     0.00008377     -4456.3767979396 -4.85E-04
    15 OT DIIS     0.15E+00    2.2     0.00007517     -4456.3771345002 -3.37E-04
    16 OT DIIS     0.15E+00    2.2     0.00006171     -4456.3774766361 -3.42E-04
    17 OT DIIS     0.15E+00    2.2     0.00005459     -4456.3779486872 -4.72E-04
    18 OT DIIS     0.15E+00    2.2     0.00005101     -4456.3780391256 -9.04E-05
    19 OT DIIS     0.15E+00    2.1     0.00004839     -4456.3784078783 -3.69E-04
    20 OT DIIS     0.15E+00    2.1     0.00004689     -4456.3786274808 -2.20E-04
    21 OT DIIS     0.15E+00    2.0     0.00004376     -4456.3789297327 -3.02E-04
    22 OT DIIS     0.15E+00    2.1     0.00004468     -4456.3792871058 -3.57E-04
    23 OT DIIS     0.15E+00    2.3     0.00004633     -4456.3796422003 -3.55E-04
    24 OT DIIS     0.15E+00    2.1     0.00004515     -4456.3799624021 -3.20E-04
    25 OT DIIS     0.15E+00    2.2     0.00004353     -4456.3803846313 -4.22E-04
    26 OT DIIS     0.15E+00    2.2     0.00004781     -4456.3806921384 -3.08E-04
    27 OT DIIS     0.15E+00    1.9     0.00004701     -4456.3809418443 -2.50E-04
    28 OT DIIS     0.15E+00    2.3     0.00004748     -4456.3811712651 -2.29E-04
    29 OT DIIS     0.15E+00    2.1     0.00004271     -4456.3813253189 -1.54E-04
    30 OT DIIS     0.15E+00    2.1     0.00004010     -4456.3814817553 -1.56E-04
    31 OT DIIS     0.15E+00    2.2     0.00003843     -4456.3816670696 -1.85E-04
    32 OT DIIS     0.15E+00    2.3     0.00003594     -4456.3818044321 -1.37E-04
    33 OT DIIS     0.15E+00    2.2     0.00003330     -4456.3819414731 -1.37E-04
    34 OT DIIS     0.15E+00    2.1     0.00003438     -4456.3821645359 -2.23E-04
    35 OT DIIS     0.15E+00    2.1     0.00003518     -4456.3822945965 -1.30E-04
    36 OT DIIS     0.15E+00    2.2     0.00003687     -4456.3824992448 -2.05E-04
    37 OT DIIS     0.15E+00    1.8     0.00003630     -4456.3826335852 -1.34E-04
    38 OT DIIS     0.15E+00    2.1     0.00003646     -4456.3827940472 -1.60E-04
    39 OT DIIS     0.15E+00    2.1     0.00003675     -4456.3829978089 -2.04E-04
    40 OT DIIS     0.15E+00    2.1     0.00003583     -4456.3831064890 -1.09E-04
    41 OT DIIS     0.15E+00    2.0     0.00003217     -4456.3831300699 -2.36E-05
    42 OT DIIS     0.15E+00    2.1     0.00003119     -4456.3833201544 -1.90E-04
    43 OT DIIS     0.15E+00    2.1     0.00003050     -4456.3833607936 -4.06E-05
    44 OT DIIS     0.15E+00    1.9     0.00002932     -4456.3834805401 -1.20E-04
    45 OT DIIS     0.15E+00    2.1     0.00002807     -4456.3835475426 -6.70E-05
    46 OT DIIS     0.15E+00    1.9     0.00002730     -4456.3836403065 -9.28E-05
    47 OT DIIS     0.15E+00    2.2     0.00002729     -4456.3837856022 -1.45E-04
    48 OT DIIS     0.15E+00    2.2     0.00002873     -4456.3838981722 -1.13E-04
    49 OT DIIS     0.15E+00    2.0     0.00002818     -4456.3839287227 -3.06E-05
    50 OT DIIS     0.15E+00    2.1     0.00002820     -4456.3841098224 -1.81E-04

  Leaving inner SCF loop after reaching    50 steps.


  Electronic density on regular grids:      -1483.9999999995        0.0000000005
  Core density on regular grids:             1483.9999999310       -0.0000000690
  Total charge density on r-space grids:       -0.0000000685
  Total charge density g-space grids:          -0.0000000685

  Overlap energy of the core charge distribution:               0.00588279189270
  Self energy of the core charge distribution:             -10331.29031661960289
  Core Hamiltonian energy:                                   2703.58796463040198
  Hartree energy:                                            3963.18447637960753
  Exchange-correlation energy:                               -791.17306207319837
  Dispersion energy:                                           -0.69905493149125

  Total energy:                                             -4456.38410982239020

  outer SCF iter =    1 RMS gradient =   0.28E-04 energy =      -4456.3841098224

  ----------------------------------- OT ---------------------------------------
  Minimizer      : DIIS                : direct inversion
                                         in the iterative subspace
                                         using   7 DIIS vectors
                                         safer DIIS on
  Preconditioner : FULL_SINGLE         : diagonalization based
  Precond_solver : DEFAULT
  stepsize       :    0.15000000                  energy_gap     :    0.20000000
  eps_taylor     :   0.10000E-15                  max_taylor     :             4
  ----------------------------------- OT ---------------------------------------

  Step     Update method      Time    Convergence         Total energy    Change
  ------------------------------------------------------------------------------
     1 OT DIIS     0.15E+00    9.1     0.00002958     -4456.3841432237 -3.34E-05
     2 OT DIIS     0.15E+00    2.1     0.00011567     -4456.3839151532  2.28E-04
     3 OT DIIS     0.15E+00    1.9     0.00002283     -4456.3843188881 -4.04E-04
     4 OT DIIS     0.15E+00    1.8     0.00001937     -4456.3843636319 -4.47E-05
     5 OT DIIS     0.15E+00    2.0     0.00002412     -4456.3845499716 -1.86E-04
     6 OT DIIS     0.15E+00    1.8     0.00003337     -4456.3856445613 -1.09E-03
     7 OT SD       0.15E+00    2.1     0.00002240     -4456.3860169044 -3.72E-04
     8 OT DIIS     0.15E+00    2.1     0.00004724     -4456.3859828558  3.40E-05
     9 OT DIIS     0.15E+00    2.1     0.00001913     -4456.3859832592 -4.03E-07
    10 OT DIIS     0.15E+00    2.3     0.00001839     -4456.3862451578 -2.62E-04
    11 OT DIIS     0.15E+00    2.0     0.00001368     -4456.3863147307 -6.96E-05
    12 OT DIIS     0.15E+00    2.0     0.00001307     -4456.3863248968 -1.02E-05
    13 OT DIIS     0.15E+00    2.2     0.00001188     -4456.3864206436 -9.57E-05
    14 OT SD       0.15E+00    1.8     0.00001029     -4456.3864941579 -7.35E-05
    15 OT DIIS     0.15E+00    2.0     0.00002916     -4456.3864866531  7.50E-06
    16 OT DIIS     0.15E+00    2.2     0.00000848     -4456.3865772159 -9.06E-05

  *** SCF run converged in    16 steps ***


  Electronic density on regular grids:      -1484.0000008731       -0.0000008731
  Core density on regular grids:             1483.9999999310       -0.0000000690
  Total charge density on r-space grids:       -0.0000009421
  Total charge density g-space grids:          -0.0000009421

  Overlap energy of the core charge distribution:               0.00588279189270
  Self energy of the core charge distribution:             -10331.29031661960289
  Core Hamiltonian energy:                                   2703.83900537728914
  Hartree energy:                                            3962.98570111262325
  Exchange-correlation energy:                               -791.22779494662291
  Dispersion energy:                                           -0.69905493149125

  Total energy:                                             -4456.38657721591244

  outer SCF iter =    2 RMS gradient =   0.85E-05 energy =      -4456.3865772159
  outer SCF loop converged in   2 iterations or   66 steps


 ENERGY| Total FORCE_EVAL ( QS ) energy [a.u.]:            -4456.386616328759374

 --------  Informations at step =     4 ------------
  Optimization Method        =                 BFGS
  Total Energy               =     -4456.3866163288
  Real energy change         =        -0.8586396417
  Predicted change in energy =        -0.8649885373
  Scaling factor             =         0.0000045077
  Step size                  =         0.0944863066
  Trust radius               =         0.0944863066
  Decrease in energy         =                  YES
  Used time                  =              157.812

  Convergence check :
  Max. step size             =         0.0944863066
  Conv. limit for step size  =         0.0030000000
  Convergence in step size   =                   NO
  RMS step size              =         0.0081427334
  Conv. limit for RMS step   =         0.0015000000
  Convergence in RMS step    =                   NO
  Max. gradient              =         5.4851765906
  Conv. limit for gradients  =         0.0004500000
  Conv. for gradients        =                   NO
  RMS gradient               =         0.3439670243
  Conv. limit for RMS grad.  =         0.0003000000
  Conv. for gradients        =                   NO
 ---------------------------------------------------

 --------------------------
 OPTIMIZATION STEP:      5
 --------------------------

  Step is scaled; Scaling factor =  0.01198

 Number of electrons:                                                       1484
 Number of occupied orbitals:                                                742
 Number of molecular orbitals:                                               742

 Number of orbital functions:                                               3388
 Number of independent orbital functions:                                   3388

 Extrapolation method: ASPC


 SCF WAVEFUNCTION OPTIMIZATION

  ----------------------------------- OT ---------------------------------------
  Minimizer      : DIIS                : direct inversion
                                         in the iterative subspace
                                         using   7 DIIS vectors
                                         safer DIIS on
  Preconditioner : FULL_SINGLE         : diagonalization based
  Precond_solver : DEFAULT
  stepsize       :    0.15000000                  energy_gap     :    0.20000000
  eps_taylor     :   0.10000E-15                  max_taylor     :             4
  ----------------------------------- OT ---------------------------------------

  Step     Update method      Time    Convergence         Total energy    Change
  ------------------------------------------------------------------------------
     1 OT DIIS     0.15E+00    6.6     0.00105954     -4457.0321392390 -4.46E+03
     2 OT DIIS     0.15E+00    2.2     0.00300962     -4456.7372398888  2.95E-01
     3 OT DIIS     0.15E+00    1.9     0.00103538     -4457.0818123535 -3.45E-01
[...]
 flops    13 x    14 x    32        1592331092352       0.0%    100.0%      0.0%
 flops    14 x    32 x    14        1598056427520       0.0%    100.0%      0.0%
 flops    14 x    13 x    32        1604460713856       0.0%    100.0%      0.0%
 flops   192 x    38 x   121        1608900378624       0.0%    100.0%      0.0%
 flops   192 x    32 x    32        2141032808448       0.0%    100.0%      0.0%
 flops   847 x    38 x    32        2487902613504       0.0%    100.0%      0.0%
 flops   847 x    38 x   121        2554297439232       0.0%    100.0%      0.0%
 flops   166 x    64 x    32        2776651923456       0.0%    100.0%      0.0%
 flops    42 x    42 x    32        3282849948672       0.0%    100.0%      0.0%
 flops    13 x    13 x    32        3533027764032       0.0%    100.0%      0.0%
 flops    42 x    32 x    14        4794169282560       0.0%    100.0%      0.0%
 flops    14 x    32 x    42        4794169282560       0.0%    100.0%      0.0%
 flops    42 x    13 x    32        4893569291520       0.0%    100.0%      0.0%
 flops    13 x    42 x    32        4897899691776       0.0%    100.0%      0.0%
 flops   192 x    32 x   121        5419453906944       0.0%    100.0%      0.0%
 flops   166 x    64 x   121        7028354285568       0.0%    100.0%      0.0%
 flops    14 x    32 x    13        7254070363904       0.0%    100.0%      0.0%
 flops    13 x    32 x    14        7254070363904       0.0%    100.0%      0.0%
 flops   847 x    32 x    32        8380303540224       0.0%    100.0%      0.0%
 flops   847 x    32 x   121        8603949268992       0.0%    100.0%      0.0%
 flops   192 x    64 x    32        9634647638016       0.0%    100.0%      0.0%
 flops    42 x    32 x    42       14382507847680       0.0%    100.0%      0.0%
 flops    13 x    32 x    13       15783905201792       0.0%    100.0%      0.0%
 flops    42 x    32 x    13       22214844008448       0.0%    100.0%      0.0%
 flops    13 x    32 x    42       22214844008448       0.0%    100.0%      0.0%
 flops   192 x    64 x   121       24387542581248       0.0%    100.0%      0.0%
 flops   847 x    64 x    32       37711365931008       0.0%    100.0%      0.0%
 flops   847 x    64 x   121       38717771710464       0.0%    100.0%      0.0%
 flops inhomo. stacks                           0       0.0%      0.0%      0.0%
 flops total                       279.046301E+12       0.0%    100.0%      0.0%
 flops max/rank                      6.011454E+12       0.0%    100.0%      0.0%
 matmuls inhomo. stacks                         0       0.0%      0.0%      0.0%
 matmuls total                         5786610024       0.0%    100.0%      0.0%
 number of processed stacks             210311184       0.0%    100.0%      0.0%
 average stack size                                     0.0      27.5       0.0
 marketing flops                   330.412941E+12
 -------------------------------------------------------------------------------
 # multiplications                          57243
 max memory usage/rank             829.644800E+06
 # max total images/rank                        7
 # max 3D layers                                1
 # MPI messages exchanged               150663576
 MPI messages size (bytes):
  total size                        20.752321E+12
  min size                           0.000000E+00
  max size                         819.896000E+03
  average size                     137.739469E+03
 MPI breakdown and total messages size (bytes):
             size <=      128            14376624                        0
       128 < size <=     8192            10720224              79963536384
      8192 < size <=    32768            30573396             581867932032
     32768 < size <=   131072            44965068            2382116659776
    131072 < size <=  4194304            50028264           17685334041648
   4194304 < size <= 16777216                   0                        0
  16777216 < size                               0                        0
 -------------------------------------------------------------------------------

 *** WARNING in dbcsr_mm.F:294 :: Using a non-square number of MPI ranks ***
 *** might lead to poor performance. Used ranks: 56 Suggested: 49 121    ***

 -------------------------------------------------------------------------------
 -                                                                             -
 -                      DBCSR MESSAGE PASSING PERFORMANCE                      -
 -                                                                             -
 -------------------------------------------------------------------------------
 ROUTINE             CALLS      AVE VOLUME [Bytes]
 MP_Bcast               70                     12.
 MP_Allreduce       303406                      9.
 MP_Alltoall        220117                  72490.
 MP_ISend          6006154                  68431.
 MP_IRecv          5939926                  67451.
 -------------------------------------------------------------------------------

 -------------------------------------------------------------------------------
 -                                                                             -
 -                                GRID STATISTICS                              -
 -                                                                             -
 -------------------------------------------------------------------------------
 LP    KERNEL             BACKEND                              COUNT     PERCENT
 6     collocate ortho    REF                              203276123      23.18%
 6     integrate ortho    REF                              189313505      21.59%
 4     collocate ortho    REF                              186477195      21.26%
 4     integrate ortho    REF                              173664316      19.80%
 8     collocate ortho    REF                               46508183       5.30%
 8     integrate ortho    REF                               43299890       4.94%
 9     integrate ortho    REF                               13962618       1.59%
 7     integrate ortho    REF                               12812879       1.46%
 11    integrate ortho    REF                                3208293       0.37%
 0     collocate general  REF                                2206176       0.25%
 3     integrate general  REF                                2206176       0.25%
 -------------------------------------------------------------------------------

 MEMORY| Estimated peak process memory [MiB]                                 792

 -------------------------------------------------------------------------------
 -                                                                             -
 -                         MESSAGE PASSING PERFORMANCE                         -
 -                                                                             -
 -------------------------------------------------------------------------------

 ROUTINE             CALLS      AVE VOLUME [Bytes]
 MP_Group                4
 MP_Bcast            45116                  15214.
 MP_Allreduce       132423                    473.
 MP_Sync              3480
 MP_Alltoall         64390                8608884.
 MP_SendRecv         44220                   4611.
 MP_ISendRecv       640860                  60552.
 MP_Wait           1116390
 MP_comm_split        1630
 MP_ISend           421488                 284156.
 MP_IRecv           421488                 284156.
 MP_Recv              9649                 599893.
 -------------------------------------------------------------------------------


 -------------------------------------------------------------------------------
 -                                                                             -
 -                           R E F E R E N C E S                               -
 -                                                                             -
 -------------------------------------------------------------------------------
 
 CP2K version 9.1, the CP2K developers group (2021).
 CP2K is freely available from https://www.cp2k.org/ .

 Kuehne,Thomas D.; Iannuzzi,Marcella; Del Ben,Mauro;
 Rybkin,Vladimir V.; Seewald,Patrick; Stein,Frederick; Laino,Teodoro;
 Khaliullin,Rustam Z.; Schuett,Ole; Schiffmann,Florian; Golze,Dorothea;
 Wilhelm,Jan; Chulkov,Sergey; Bani-Hashemian,Mohammad Hossein;
 Weber,Valery; Borstnik,Urban; Taillefumier,Mathieu;
 Jakobovits,Alice Shoshana; Lazzaro,Alfio; Pabst,Hans; Mueller,Tiziano;
 Schade,Robert; Guidon,Manuel; Andermatt,Samuel; Holmberg,Nico;
 Schenter,Gregory K.; Hehn,Anna; Bussy,Augustin; Belleflamme,Fabian;
 Tabacchi,Gloria; Gloess,Andreas; Lass,Michael; Bethune,Iain;
 Mundy,Christopher J.; Plessl,Christian; Watkins,Matt;
 VandeVondele,Joost; Krack,Matthias; Hutter,Juerg. 
 The Journal of Chemical Physics, 152 (19), (2020). 
 CP2K: An electronic structure and molecular dynamics software package -
 Quickstep: Efficient and accurate electronic structure calculations.
 https://doi.org/10.1063/5.0007045

 Goerigk, Lars; Hansen, Andreas; Bauer, Christoph; Ehrlich, Stephan;
 Najibi, Asim; Grimme, Stefan. , 19 (48), (2017). 
 A look at the density functional theory zoo with the advanced GMTKN55 database
 for general main group thermochemistry, kinetics and noncovalent interactions.
 https://doi.org/10.1039/C7CP04913G

 Schuett, Ole; Messmer, Peter; Hutter, Juerg; VandeVondele, Joost. 
 Electronic Structure Calculations on Graphics Processing Units, John
 Wiley & Sons, Ltd, 173-190 (2016). 
 GPU-Accelerated Sparse Matrix-Matrix Multiplication for
 Linear Scaling Density Functional Theory.
 https://doi.org/10.1002/9781118670712.ch8

 Heinecke, A; Henry, G; Hutchinson, M; Pabst, H. 
 Proceedings of Intl. Supercomputing Conference, 981-991 (2016). 
 LIBXSMM: Accelerating Small Matrix Multiplications
 by Runtime Code Generation.
 https://doi.org/10.1109/SC.2016.83

 Borstnik, U; VandeVondele, J; Weber, V; Hutter, J. 
 PARALLEL COMPUTING, 40 (5-6), 47-58 (2014). 
 Sparse matrix multiplication: The distributed block-compressed sparse
 row library.
 https://doi.org/10.1016/j.parco.2014.03.012

 Hutter, J; Iannuzzi, M; Schiffmann, F; VandeVondele, J. 
 WIREs Comput Mol Sci., 4 (1), 15-25 (2014). 
 CP2K: atomistic simulations of condensed matter systems.
 https://doi.org/10.1002/wcms.1159

 Marek, A; Blum, V; Johanni, R; Havu, V; Lang, B; Auckenthaler, T;
 Heinecke, A; Bungartz, H; Lederer, H. 
 Journal of Physics: Condensed Matter, 26 (21), (2014). 
 The ELPA library: scalable parallel eigenvalue solutions for
 electronic structure
 theory and computational science.
 https://doi.org/10.1088/0953-8984/26/21/213201

 Grimme, S; Ehrlich, S; Goerigk, L. 
 JOURNAL OF COMPUTATIONAL CHEMISTRY, 32, 1456 (2011). 
 Effect of the damping function in dispersion corrected density functional theory.
 https://doi.org/10.1002/jcc.21759

 Grimme, S; Antony, J; Ehrlich, S; Krieg, H. 
 JOURNAL OF CHEMICAL PHYSICS, 132 (15), 154104 (2010). 
 A consistent and accurate ab initio parametrization of density
 functional dispersion correction (DFT-D) for the 94 elements H-Pu.
 https://doi.org/10.1063/1.3382344

 VandeVondele, J; Hutter, J. 
 JOURNAL OF CHEMICAL PHYSICS, 127 (11), 114105 (2007). 
 Gaussian basis sets for accurate calculations on molecular systems in
 gas and condensed phases.
 https://doi.org/10.1063/1.2770708

 Kuhne, TD; Krack, M; Mohamed, FR; Parrinello, M. 
 PHYSICAL REVIEW LETTERS, 98 (6), 066401 (2007). 
 Efficient and accurate Car-Parrinello-like approach to
 Born-Oppenheimer molecular dynamics.
 https://doi.org/10.1103/PhysRevLett.98.066401

 Krack, M. 
 THEORETICAL CHEMISTRY ACCOUNTS, 114 (1-3), 145-152 (2005). 
 Pseudopotentials for H to Kr optimized for gradient-corrected
 exchange-correlation functionals.
 https://doi.org/10.1007/s00214-005-0655-y

 VandeVondele, J; Krack, M; Mohamed, F; Parrinello, M; Chassaing, T;
 Hutter, J. COMPUTER PHYSICS COMMUNICATIONS, 167 (2), 103-128 (2005). 
 QUICKSTEP: Fast and accurate density functional calculations using a
 mixed Gaussian and plane waves approach.
 https://doi.org/10.1016/j.cpc.2004.12.014

 Frigo, M; Johnson, SG. 
 PROCEEDINGS OF THE IEEE, 93 (2), 216-231 (2005). 
 The design and implementation of FFTW3.
 https://doi.org/10.1109/JPROC.2004.840301

 Kolafa, J. 
 JOURNAL OF COMPUTATIONAL CHEMISTRY, 25 (3), 335-342 (2004). 
 Time-reversible always stable predictor-corrector method for
 molecular dynamics of polarizable molecules.
 https://doi.org/10.1002/jcc.10385

 VandeVondele, J; Hutter, J. 
 JOURNAL OF CHEMICAL PHYSICS, 118 (10), 4365-4369 (2003). 
 An efficient orbital transformation method for electronic structure
 calculations.
 https://doi.org/10.1063/1.1543154

 Hartwigsen, C; Goedecker, S; Hutter, J. 
 PHYSICAL REVIEW B, 58 (7), 3641-3662 (1998). 
 Relativistic separable dual-space Gaussian pseudopotentials from H to Rn.
 https://doi.org/10.1103/PhysRevB.58.3641

 Lippert, G; Hutter, J; Parrinello, M. 
 MOLECULAR PHYSICS, 92 (3), 477-487 (1997). 
 A hybrid Gaussian and plane wave density functional scheme.
 https://doi.org/10.1080/002689797170220

 Perdew, JP; Burke, K; Ernzerhof, M. 
 PHYSICAL REVIEW LETTERS, 77 (18), 3865-3868 (1996). 
 Generalized gradient approximation made simple.
 https://doi.org/10.1103/PhysRevLett.77.3865

 Goedecker, S; Teter, M; Hutter, J. 
 PHYSICAL REVIEW B, 54 (3), 1703-1710 (1996). 
 Separable dual-space Gaussian pseudopotentials.
 https://doi.org/10.1103/PhysRevB.54.1703


 -------------------------------------------------------------------------------
 -                                                                             -
 -                                T I M I N G                                  -
 -                                                                             -
 -------------------------------------------------------------------------------
 SUBROUTINE                       CALLS  ASD         SELF TIME        TOTAL TIME
                                MAXIMUM       AVERAGE  MAXIMUM  AVERAGE  MAXIMUM
 CP2K                                 1  1.0    0.053    0.066 9912.867 9912.875
 cp_geo_opt                           1  2.0    0.000    0.000 9912.371 9912.378
 geoopt_bfgs                          1  3.0    0.041    0.449 9912.371 9912.377
 cp_eval_at                         201  4.0    0.031    0.038 9875.606 9875.615
 qs_forces                          201  5.0    0.031    0.033 9875.540 9875.549
 qs_energies                        201  6.0    0.015    0.020 8223.777 8224.488
 scf_env_do_scf                     201  7.0    0.013    0.037 7741.516 7741.566
 scf_env_do_scf_inner_loop         2712  8.0    0.059    0.231 6111.215 6116.949
 rebuild_ks_matrix                 2913  9.8    0.012    0.014 4592.196 4594.583
 qs_ks_build_kohn_sham_matrix      2913 10.8    0.400    0.436 4592.184 4594.571
 qs_ks_update_qs_env               2928  9.0    0.023    0.028 3666.482 3669.310
 pw_transfer                      55548 13.5    4.203    5.670 2228.875 2267.265
 fft_wrap_pw1pw2                  49722 14.6    0.760    0.992 2206.828 2243.614
 sum_up_and_integrate              2913 11.8    4.221    4.730 2145.226 2154.448
 integrate_v_rspace                2913 12.8    0.108    0.120 2140.997 2149.711
 fft_wrap_pw1pw2_210              32244 15.6  119.519  128.238 2064.155 2090.136
 qs_vxc_create                     2913 11.8    0.072    0.084 2030.374 2046.629
 xc_vxc_pw_create                  2913 12.8   49.894   55.755 2030.303 2046.568
 fft3d_ps                         49722 16.6  601.987  703.912 1851.465 1882.932
 qs_rho_update_rho                 2913  9.1    0.016    0.019 1852.958 1857.312
 calculate_rho_elec                2913 10.1    3.688    4.455 1852.942 1857.295
 init_scf_loop                      216  8.0    0.008    0.011 1620.061 1620.182
 rs_pw_transfer                   23706 13.4    0.425    0.506 1234.359 1331.039
 prepare_preconditioner             216  9.0    0.001    0.002 1286.459 1286.864
 make_preconditioner                216 10.0    0.003    0.004 1286.458 1286.863
 make_full_single                   216 11.0    0.114    0.138 1230.648 1231.319
 density_rs2pw                     2913 11.1    0.171    0.268 1117.181 1224.085
 mp_alltoall_z22v                 49722 18.6 1094.828 1182.431 1094.828 1182.431
 grid_integrate_task_list          2913 13.8 1006.573 1166.624 1006.573 1166.624
 dbcsr_multiply_generic           57243 14.0    3.360    3.559 1119.603 1127.789
 qs_scf_new_mos                    2712  9.0    0.016    0.018 1020.591 1026.354
 qs_scf_loop_do_ot                 2712 10.0    0.019    0.024 1020.576 1026.338
 xc_rho_set_and_dset_create        2913 13.8    4.684    5.664  863.192  957.064
 ot_scf_mini                       2712 11.0    0.061    0.133  945.654  948.753
 qs_ks_update_qs_env_forces         201  6.0    0.002    0.003  941.378  942.004
 mp_waitany                      421488 15.3  809.118  916.039  809.118  916.039
 yz_to_x                          20592 17.2   52.202   61.013  740.527  819.645
 cp_gemm                           2615  9.7    0.009    0.012  773.498  775.370
 cp_gemm_cosma                     2615 10.7  773.489  775.361  773.489  775.361
 grid_collocate_task_list          2913 11.1  655.412  765.694  655.412  765.694
 multiply_cannon                  57243 15.0    5.168    5.917  721.390  750.211
 rs_pw_transfer_RS2PW_210          3114 12.9   40.798   49.523  649.303  741.750
 mp_alltoall_d11v                 54882 15.1  597.722  720.371  597.722  720.371
 mp_waitall_1                   5732286 17.8  630.441  678.951  630.441  678.951
 rs_gather_matrices                2913 13.8    1.596    1.893  505.415  649.019
 multiply_cannon_loop             57243 16.0   10.988   11.677  623.367  639.899
 build_core_hamiltonian_matrix_     201  6.0    0.012    0.013  584.660  630.583
 potential_pw2rs                   2913 13.8    0.447    0.504  613.141  614.828
 x_to_yz                          23304 18.0   92.013  108.571  497.607  559.635
 ot_mini                           2712 12.0    0.017    0.019  555.362  559.295
 build_core_ppnl_forces             201  7.0  431.348  473.407  431.348  473.407
 cp_fm_diag_elpa                   1846 13.2    0.009    0.014  428.958  432.512
 multiply_cannon_metrocomm3     1602804 17.0    2.561    2.717  381.688  424.302
 cp_fm_diag_elpa_base              1846 14.1  328.517  401.401  346.512  413.691
 qs_ot_get_derivative              2712 13.0    0.030    0.036  382.511  386.288
 mp_sum_d                         71788 14.5  284.762  372.621  284.762  372.621
 xc_functional_eval                2913 14.8    0.031    0.046  266.636  320.470
 pbe_lda_eval                      2913 15.8  266.605  320.447  266.605  320.447
 init_scf_run                       201  7.0    0.004    0.026  286.668  286.676
 scf_env_initial_rho_setup          201  8.0    0.002    0.014  286.663  286.671
 wfi_extrapolate                    201  9.0    0.020    0.023  283.732  284.129
 multiply_cannon_multrec        1602804 17.0  188.235  264.036  188.687  264.498
 rs_pw_transfer_PW2RS_210          3114 15.5  122.284  127.963  245.438  249.696
 make_m2s                        114486 15.0    3.162    3.454  234.674  243.827
 make_images                     114486 16.0    4.521    4.763  209.561  220.316
 -------------------------------------------------------------------------------

 The number of warnings for this run is : 2
 
 -------------------------------------------------------------------------------
  **** **** ******  **  PROGRAM ENDED AT                 2023-12-05 13:59:27.897
 ***** ** ***  *** **   PROGRAM RAN ON                               ibc11b02n07
 **    ****   ******    PROGRAM RAN BY                                     junli
 ***** **    ** ** **   PROGRAM PROCESS ID                                 13072
  **** **  *******  **  PROGRAM STOPPED IN  /WORK/junli_work/libin/1_U28/0_try_1
