     196
 i =        1, E =     -4453.2862802636
  U         2.5107967096        5.4646214492       -3.6159831898
  U        -1.6443262596        5.5282484484       -3.5732273008
  U         3.5665236582        2.1033636261        5.8450512759
  U         0.0688826068        0.0140462173       -7.0702687040
  U         0.5243412269       -3.9564205995       -5.7803382205
  U        -2.4792864229       -5.6788465940        3.4692376356
  U        -0.5448377596       -7.1392797882        0.0037312702
  U         7.2105280357        1.0806436761       -0.2901336892
  U        -3.1719400427        2.2995293773       -5.7734472702
  U         2.5100125014        5.4633907521        3.6038315047
  U        -1.7449736759        5.9681285079        4.1333187455
  U        -2.4840024908       -5.6886349324       -3.4689266983
  U         0.0687705973        0.0110768165        7.0664362067
  U        -5.7478725909       -3.4187906116        2.1914614982
  U         6.0124571317       -0.4563638554       -3.6229203659
  U        -3.9750567139        6.2680979725        0.0393887942
  U        -6.1371839352        0.5266573252       -3.4634659792
  U        -3.1668049000        2.2889370597        5.7658401892
  U        -5.7530559271       -3.4245451998       -2.1927823460
  U         3.4977749055       -6.0519131925       -0.0005325350
  U         4.2176551542       -4.2054771985        3.6008952866
  U         3.5691852263        2.1048207990       -5.8367376550
  U         4.7485601047        5.0040679519       -0.3511942914
  U        -6.5363226751        2.8918898863        0.0033055794
  U         6.0045521845       -0.4582889496        3.6113148865
  U        -6.1480527345        0.5253794194        3.4641230881
  U         4.2183590011       -4.2075478338       -3.6002787992
  U         0.5247475652       -3.9506759877        5.7753940631
  O         6.0198329434        3.4682493637        0.7813638451
  O         3.1014739992        6.9061471097       -4.5320870970
  O        -3.9229021791        2.9893519897       -7.2231579130
  O        -5.5839244005        4.8872572356        0.8343260052
  O         4.6003131030       -0.4569971239        2.3251216049
  O        -2.3250950669       -6.9462473368        1.4960366717
  O        -4.5455752829       -4.5398012850        3.9157037363
  O        -6.4227675217       -2.9608217531        0.0003799681
  O         0.4279839625        5.5747078685       -4.5721247389
  O        -7.2411510324        1.2540428997       -1.4654112965
  O         6.1127918374        3.5295920485       -0.7988876473
  O        -3.9194679816        2.9863036099        7.2184804470
  O         3.1018543750        6.9040984061        4.5347252020
  O        -5.5854119361        4.8865116009       -0.8343801558
  O        -4.5441064338       -4.5399505407       -3.9151244014
  O        -0.6028137351       -8.8650243573       -0.0000540498
  O        -7.2823628305       -4.3101209008        2.6582283811
  O         2.3985224845        3.6557200912       -3.0736283190
  O        -6.7441254022        2.4544268617       -2.2929999843
  O         0.4357992857        5.5871986117        4.5860623911
  O        -7.2870019882        1.2614340014        1.4746221973
  O        -7.2879830644       -4.3129988594       -2.6568552264
  O        -4.5647396370       -5.4328408016        2.5343199173
  O        -0.5416097777       -5.5959222017        0.5311051271
  O         4.9065757485       -5.0510798224        1.5420679908
  O         6.8398298956        1.2227528690       -2.2536344363
  O         3.4501549579       -3.1121640382        2.5712587698
  O         0.4506695679        6.4800279131       -3.0734640686
  O        -2.7420376045        4.8076476510       -0.2623603701
  O         4.4694522807        2.6553170099       -7.3227275261
  O         2.3311520531        3.8556958200        2.0890259283
  O        -6.7621115798        2.4604989171        2.2984212418
  O        -4.5666399804       -5.4344339937       -2.5354607763
  O         4.9175224860       -5.0547021608       -1.5390548584
  O         3.2315936078       -3.2363764546       -2.6443470306
  O         5.6243102374        1.5189483887       -4.7894914232
  O         7.5794400466       -0.6193173125       -4.5371941698
  O         6.0091326380       -2.7731751813       -2.9375552175
  O         6.6918558692        1.1879674925        2.2003148450
  O         4.4722018364        2.6563258178        7.3280325557
  O         0.4568024456        6.5363096609        3.1027574996
  O        -0.6661139505       -5.7369037399        4.7820252484
  O         5.2574133245       -5.2664007920        4.5444499098
  O         0.5718621557       -3.2705656256        3.8529372731
  O        -1.9481172363        4.3356854652       -5.4822216659
  O        -1.2733528673        1.9146633508       -7.0465783932
  O         5.6176378270        1.5198068054        4.7853323728
  O         6.0119827779       -2.7736970227        2.9403180017
  O         7.5745444564       -0.6184864589        4.5384010738
  O        -0.6674788462       -5.7374903678       -4.7816549568
  O         0.3365841476       -3.5673433740       -4.1340544594
  O         5.2555059241       -5.2636966383       -4.5388444020
  O         4.4649017840       -7.5440797286        0.0023064443
  O         8.4862103031        1.8028740247        0.0040895578
  O        -3.5120254799        6.0296560801       -2.2520368536
  O        -1.1483575990        4.1865775912       -2.0825502044
  O         4.6603019717        1.8160804829        0.1659177421
  O        -1.9527950916        4.3366256145        5.4919994039
  O        -1.2760221662        1.9194241466        7.0495002633
  O        -0.0303197704        0.2547415016       -5.6498297144
  O         1.0861548744       -2.0857682568        7.0618257116
  O         2.8486737984       -3.8927642810        5.4768612325
  O         3.1912222235        6.3706883231       -1.5380085152
  O         4.9928925455        0.2914140572       -5.6315680366
  O        -3.5137458553        6.0325253782        2.2537207507
  O        -1.2481622678        4.5068112396        3.0635892841
  O         1.0850620882       -2.0842807228       -7.0562515694
  O         2.8483451141       -3.8919218265       -5.4759584066
  O         0.7281886575       -4.9303296532        7.2198636712
  O         0.0560899657        0.0091312547        5.6516636674
  O        -3.1066404531       -7.0667990639        4.3699482591
  O        -2.0699360498        6.6954568796       -1.5151949070
  O        -4.5026456729        7.4777643249        0.0009216866
  O         4.9763115707        0.2966608812        5.6140736259
  O         3.2119667855        6.4108715371        1.5471480221
  O         0.0404770554        0.0399322809       -8.8187833779
  O         0.7289019926       -4.9299126997       -7.2171116704
  O        -3.1068643607       -7.0685131403       -4.3693745967
  O        -6.0535173990       -1.7677896747        3.9142563009
  O         1.5986122480       -7.2182594951       -0.7659046738
  O         7.0547702117       -0.2974810581        1.4576446659
  O         4.4130881634        5.3931008536        2.3594280343
  O        -1.9947028596        6.4402162561        1.4569729012
  O        -6.0940480167       -1.7765714895       -3.9407500874
  O         1.5997426461       -7.2220712703        0.7698917272
  O         0.0402179847        0.0401593814        8.8184201325
  O        -1.6841129921       -4.7944824632        5.5359621739
  O        -4.4625283080       -2.5800505156        1.6228889431
  O         2.5330670455       -4.6080596182       -0.1533404050
  O        -3.2904511543        4.4023756042       -4.6870714173
  O        -4.9380370583        0.7967817854       -5.5248956963
  O         3.2033697989        1.7162213220       -3.8191443626
  O        -4.9176871930        1.4729947910        0.3080948355
  O         7.0643794525       -0.2998135204       -1.4550975919
  O         4.4084471309        5.3872112852       -2.3578278152
  O        -1.6842835238       -4.7935067227       -5.5339220923
  O        -4.4894681761       -2.8723560226       -1.8525715283
  O         2.3357306963       -5.0809144875        4.7207094305
  O        -2.2751741722        0.5431380759       -7.0973562412
  O        -3.9876041076        0.8613862755       -2.9836163109
  O         3.5290753436        3.6488547024       -0.6353046881
  O         2.3640971397        1.0355192136        4.5531520479
  O        -3.2944573171        4.4022367534        4.6935449402
  O        -4.9207842466        0.7963646331        5.5117276421
  O         2.3367268128       -5.0828798798       -4.7225955169
  O        -0.9755694830       -7.1025872973       -2.2673215616
  O        -5.8098608844       -4.3730280718        0.0012023161
  O         5.8724731903        6.4478894254       -0.0002464068
  O         2.5901205623        4.2663244159       -5.6549898977
  O         3.9861116219        4.1367621319       -4.8172876134
  O        -2.2779486787        0.5465608672        7.1017994653
  O        -4.7816106920        0.4943638238        2.7022533764
  O        -0.9791701784       -7.1178642288        2.2757138669
  O        -0.5409650290       -2.3000066929        7.0776722119
  O        -6.8625711137       -1.4056313360        2.4848074123
  O        -2.0479659591       -3.9537127768        2.9227963119
  O        -2.5535196543        1.5955935630       -4.6784038146
  O        -7.6716864413        0.5869487265       -4.3165448288
  O         2.5774226762        4.2518435495        5.6316364794
  O         3.9718401013        4.1248262788        4.8010417517
  O        -0.5415561688       -2.3001001526       -7.0824341279
  O        -2.3269062861       -4.5188107640       -2.4426658255
  O        -6.8591432035       -1.4008113163       -2.4840748375
  O         3.7368476452       -5.9779701161       -2.2835289900
  O        -2.0554977771        7.1045103986       -4.5295588043
  O         2.4003741506        0.5381582203       -7.1155431263
  O         1.6008316606        1.8596243444       -7.1028159019
  O        -5.2712005106        2.1813096427       -4.8473150589
  O         5.1380124781       -2.3589449773       -4.5697374936
  O        -2.1693304163        1.0111352938        4.5560995606
  O        -7.6806569886        0.5862816721        4.3262231536
  O         3.7318988068       -5.9708886208        2.2820224158
  O         4.7130471765       -0.3562151964       -2.8127150075
  O        -8.1746417911        3.5766105433        0.0003999382
  O         2.3977988001        0.5404028535        7.1116834708
  O         1.5981543930        1.8588368542        7.0941126353
  O        -2.0560838630        7.1174377388        4.5292827387
  O        -5.2788862585        2.1889475669        4.8612154789
  O         5.1424727856       -2.3576041827        4.5704264166
  O        -2.3351755237       -6.9858108312       -1.4961824456
  K        -3.6712629020        2.0180783319       -1.5245816121
  K        -2.8008333510        2.9105702933        1.8629491772
  K         0.7400430400       -3.6439787722       -2.2777014249
  K         0.7698473564       -4.3404363030        1.9851025175
  K         4.5215965693       -1.8424506514       -0.1383165495
  K        -0.2429636834        4.1340412647       -0.0113287939
  K        -2.7258670274       -1.0279552843       -4.3201124255
  K        -2.7977887547       -1.2015497209        3.7466501638
  K         4.1891363446        2.4665082258       -1.9472122206
  K         4.2436581694        2.1999845245        2.1375462589
  K         1.9264550775       -0.3210475386       -4.3957721675
  K         2.4496511441       -0.3847473496        4.3915854619
  K         0.5043392118        2.9839165859       -3.6423579137
  K         0.4865771490        2.9838434410        4.0469541158
  K        -4.9161304199       -1.4297394920       -0.1231029616
  K        -2.8896091259       -4.8733333113        0.1344803860
  K         3.7990202464       -1.8185901957        7.3306292568
  K         3.8082245487       -1.8217949922       -7.3522545233
  K        -6.2069071594        7.2163585747       -2.4325314890
  K        -6.2042886031        7.2122103915        2.4270288279
  K        -3.6454455775        5.8826305975       -7.0039647038
  K        -3.6419845208        5.8720179392        6.9920744825
  K         3.5045530095       -6.1994067256       -6.9637621098
  K         3.5022090981       -6.1953333994        6.9561245534
  K        -2.3580779574        1.8179867049       -9.5098402023
  K        -2.3487789877        1.8081454720        9.4776077018
  K         6.8564271040       -3.2125432199        6.6045953022
  K         6.8600527845       -3.2137528721       -6.6101773901
     196
 i =        2, E =     -4454.4085531217
  U         2.5230547400        5.4683455391       -3.6268246945
  U        -1.6460617547        5.5441101418       -3.5542611719
  U         3.5655205959        2.1136121107        5.8543835600
  U         0.0679432088        0.0225957276       -7.0802029641
  U         0.5144995617       -3.9810773494       -5.7815640864
  U        -2.4859281964       -5.6744431933        3.4804640085
  U        -0.5469731098       -7.1552850830        0.0140633192
  U         7.1991374200        1.0961170830       -0.2856455927
  U        -3.1804677129        2.2978830736       -5.7911602309
  U         2.5203723605        5.4633860750        3.5820941753
  U        -1.7381577031        5.9639678686        4.0965786709
  U        -2.4979120900       -5.6971130282       -3.4703493270
  U         0.0666740321        0.0118634820        7.0720888879
  U        -5.7568487992       -3.4281544159        2.1969585367
  U         6.0197590412       -0.4604270487       -3.6260692806
  U        -3.9356749681        6.2587102673        0.0349309150
  U        -6.1283452095        0.5294409308       -3.4658027645
  U        -3.1688339690        2.2689584713        5.7751288404
  U        -5.7638175436       -3.4442792393       -2.2016800170
  U         3.4982177244       -6.0579359290       -0.0044090931
  U         4.2271693998       -4.2035817973        3.5938825780
  U         3.5810091999        2.1195173762       -5.8310251856
  U         4.7354320610        5.0195866441       -0.3199378382
  U        -6.5369229724        2.8663280388        0.0145194707
  U         6.0129475430       -0.4664640727        3.5974448746
  U        -6.1594461816        0.5268529415        3.4618286288
  U         4.2262434293       -4.2099368608       -3.5924913650
  U         0.5175591278       -3.9587955443        5.7647156295
  O         6.0244654315        3.4629914264        0.7730911020
  O         3.1033985568        6.9175388857       -4.5344389280
  O        -3.9276537649        2.9989388871       -7.2456950463
  O        -5.5892716793        4.8900856918        0.8302359873
  O         4.5902877960       -0.4544112947        2.3357053826
  O        -2.3286091615       -6.9502931902        1.5055773079
  O        -4.5438216384       -4.5430128400        3.9123632717
  O        -6.4239334971       -2.9625694905       -0.0003095299
  O         0.4197861542        5.5776309088       -4.5660172108
  O        -7.2403855409        1.2500180312       -1.4766609857
  O         6.1213475653        3.5376940424       -0.7985970018
  O        -3.9187447713        2.9921618809        7.2247922015
  O         3.0978958221        6.8978465400        4.5302144359
  O        -5.5949511944        4.8855198239       -0.8292169365
  O        -4.5413333493       -4.5428591150       -3.9122989460
  O        -0.6030959927       -8.8866981976       -0.0039750429
  O        -7.2896676437       -4.3141374433        2.6609932295
  O         2.3815837486        3.6728786903       -3.0500248637
  O        -6.7417253866        2.4553089666       -2.2911558313
  O         0.4464027943        5.5953490023        4.5893642351
  O        -7.2941068964        1.2645725803        1.4812069818
  O        -7.3027122604       -4.3188686183       -2.6602435034
  O        -4.5671727759       -5.4302685076        2.5361213639
  O        -0.5414719521       -5.5777839719        0.4962674522
  O         4.9076146433       -5.0590676360        1.5465235712
  O         6.8397328865        1.2279236395       -2.2629963946
  O         3.4343281060       -3.1097155499        2.5660840232
  O         0.4484596142        6.4767715698       -3.0797792744
  O        -2.7471556242        4.7736551439       -0.2459730726
  O         4.4680632637        2.6522557303       -7.3280063032
  O         2.3122573722        3.8707268736        2.1199198217
  O        -6.7636571224        2.4662322781        2.2930595356
  O        -4.5774798945       -5.4355110705       -2.5401194826
  O         4.9191020906       -5.0604889207       -1.5466212396
  O         3.2236556880       -3.2233499993       -2.6442517514
  O         5.6236684056        1.5174453464       -4.7989750415
  O         7.5847585876       -0.6249041431       -4.5424126883
  O         6.0061508342       -2.7726689581       -2.9498694596
  O         6.7006788161        1.1828560988        2.1985457532
  O         4.4761415379        2.6564204083        7.3345346857
  O         0.4599388566        6.5330429806        3.1148580809
  O        -0.6592909077       -5.7366107693        4.7901271207
  O         5.2611241487       -5.2687481651        4.5556436529
  O         0.5664830738       -3.2556977185        3.8742308943
  O        -1.9487176712        4.3394683347       -5.4790086579
  O        -1.2830369737        1.9163769123       -7.0723086618
  O         5.6076156734        1.5179370806        4.7869944112
  O         6.0149776117       -2.7728464758        2.9566288392
  O         7.5730037027       -0.6218909114        4.5414200219
  O        -0.6653212307       -5.7400504320       -4.7892037093
  O         0.3319124685       -3.5291034724       -4.1335132398
  O         5.2613493486       -5.2659710634       -4.5499250907
  O         4.4671303758       -7.5507860552        0.0029770813
  O         8.4999858553        1.8157234942        0.0123685894
  O        -3.5113990953        6.0399777471       -2.2629321165
  O        -1.1487899309        4.1807192007       -2.1044588196
  O         4.6805186154        1.7854767107        0.1663114393
  O        -1.9615686905        4.3356043249        5.5032983239
  O        -1.2895535779        1.9250295925        7.0725318497
  O        -0.0361735754        0.2476801102       -5.6306435261
  O         1.0853073713       -2.0912363808        7.0605411614
  O         2.8504171158       -3.8954383016        5.4856403520
  O         3.1996151308        6.3637800421       -1.5458811912
  O         4.9923973114        0.2920525312       -5.6332147512
  O        -3.5115993654        6.0366730033        2.2653818034
  O        -1.2464836432        4.4931159914        3.0444942966
  O         1.0832445158       -2.0839618961       -7.0534116489
  O         2.8496137458       -3.8918294978       -5.4822175102
  O         0.7345900987       -4.9303226738        7.2215551658
  O         0.0618565473        0.0051528012        5.6306046361
  O        -3.1096963834       -7.0755317601        4.3703370066
  O        -2.0795484902        6.7053453441       -1.5322907959
  O        -4.5195770472        7.4826162454        0.0025903022
  O         4.9727020811        0.2967738865        5.6111142897
  O         3.2208538046        6.4055920581        1.5520382202
  O         0.0401445147        0.0386159410       -8.8309432652
  O         0.7385825626       -4.9372760112       -7.2362944584
  O        -3.1108139921       -7.0809293083       -4.3775645184
  O        -6.0538244220       -1.7706293989        3.9077103318
  O         1.6026908532       -7.2209293816       -0.7642987602
  O         7.0602536243       -0.2978572492        1.4664190069
  O         4.4169643794        5.4014455600        2.3496318697
  O        -2.0050118278        6.4518280098        1.4764030683
  O        -6.0921866476       -1.7687017341       -3.9363689054
  O         1.6060971863       -7.2259280945        0.7679210004
  O         0.0382662150        0.0415274335        8.8272697204
  O        -1.6772257803       -4.7946083204        5.5366448656
  O        -4.4509745708       -2.5822609853        1.6339263284
  O         2.5310649953       -4.6018136328       -0.1504412210
  O        -3.2891284988        4.4047934079       -4.6878017299
  O        -4.9446009946        0.7977205272       -5.5250310201
  O         3.1830434142        1.7003993954       -3.8467157410
  O        -4.9283969657        1.4950947549        0.3045657701
  O         7.0583567897       -0.3076194321       -1.4476375291
  O         4.4161287041        5.3993253996       -2.3571912312
  O        -1.6788495965       -4.7914262346       -5.5317848907
  O        -4.4797814370       -2.8687321917       -1.8581646630
  O         2.3387457485       -5.0837527423        4.7290715621
  O        -2.2769066844        0.5493432198       -7.1118631632
  O        -4.0202352613        0.8327309352       -2.9709240776
  O         3.5258545469        3.6579628496       -0.6307515238
  O         2.3810116513        1.0429291970        4.5424771028
  O        -3.2985940129        4.3957600636        4.7044034861
  O        -4.9213883788        0.8031440562        5.5166488783
  O         2.3395537122       -5.0840124517       -4.7295385041
  O        -0.9797734895       -7.0954469444       -2.2700110022
  O        -5.8082011986       -4.3703290144        0.0031485406
  O         5.8781422177        6.4491393692       -0.0025019842
  O         2.5950495832        4.2634523001       -5.6564017322
  O         3.9920107810        4.1415362671       -4.8324815793
  O        -2.2849187482        0.5580905397        7.1239018773
  O        -4.7685460202        0.4910917480        2.7042835108
  O        -0.9903153643       -7.1182860298        2.2901358609
  O        -0.5347937610       -2.3023120470        7.0753310263
  O        -6.8594250602       -1.4109145385        2.4863883800
  O        -2.0444507174       -3.9566738647        2.9084500619
  O        -2.5348146317        1.6007690321       -4.6733266167
  O        -7.6685723554        0.5873868253       -4.3143191533
  O         2.5791586638        4.2496851888        5.6240283155
  O         3.9696498442        4.1229857618        4.8005983150
  O        -0.5362266856       -2.2982864045       -7.0787140172
  O        -2.2992027036       -4.5037281559       -2.4458104274
  O        -6.8510118227       -1.3936896680       -2.4878692166
  O         3.7413614596       -5.9797735715       -2.2838409331
  O        -2.0602018883        7.0983214309       -4.5346502737
  O         2.4013689537        0.5370933064       -7.1079375080
  O         1.6053482945        1.8572368430       -7.0960343052
  O        -5.2757336152        2.1805768838       -4.8527685611
  O         5.1410914671       -2.3630020035       -4.5776301889
  O        -2.1718956750        1.0304030811        4.5475271266
  O        -7.6890068694        0.5882037206        4.3348730128
  O         3.7338841102       -5.9716057564        2.2800325394
  O         4.7022921232       -0.3539059101       -2.8067491413
  O        -8.1663975207        3.5803499908       -0.0014955412
  O         2.4004174649        0.5408851154        7.1112442597
  O         1.6023644245        1.8571952046        7.0920500398
  O        -2.0595784352        7.1396480649        4.5333133438
  O        -5.2681486124        2.1933431496        4.8656876519
  O         5.1509819304       -2.3560941756        4.5778052152
  O        -2.3330099566       -6.9908552964       -1.4952894902
  K        -3.6519611721        2.0349731370       -1.5302359771
  K        -2.8103885500        2.9109280744        1.8621689356
  K         0.7403404400       -3.6539718568       -2.2537329586
  K         0.7815273989       -4.3369163089        1.9897884885
  K         4.5232261980       -1.8454469131       -0.1341533496
  K        -0.2367322471        4.1425017887       -0.0052943922
  K        -2.7310273005       -1.0346790773       -4.3213637091
  K        -2.7987211079       -1.2113974041        3.7470269607
  K         4.1917989754        2.4600399977       -1.9598691937
  K         4.2375467896        2.2051453579        2.1479760907
  K         1.9413036184       -0.3347407278       -4.3815060154
  K         2.4414560138       -0.4019127561        4.3848257222
  K         0.4915770834        2.9671479649       -3.6509999834
  K         0.4838220950        2.9763969267        4.0482637799
  K        -4.9182309102       -1.3965748235       -0.1180181599
  K        -2.9034536000       -4.8670616356        0.1342016763
  K         3.7925494891       -1.8143276884        7.3283522922
  K         3.8031604580       -1.8166351286       -7.3504189702
  K        -6.2056245323        7.2134353827       -2.4361959295
  K        -6.2052327124        7.2087036033        2.4293368481
  K        -3.6420950373        5.8810014285       -6.9987289990
  K        -3.6443962787        5.8663085848        6.9954602945
  K         3.4999882858       -6.1994004372       -6.9564522381
  K         3.4977270936       -6.1948542182        6.9484848209
  K        -2.3807503393        1.8536283944       -9.5016662662
  K        -2.3161171435        1.7581454720        9.4716156806
  K         6.8610714676       -3.2110730048        6.5928110791
  K         6.8647809678       -3.2117672935       -6.5983210603
     196
 i =        3, E =     -4455.5279766870
  U         2.5239662977        5.4685339414       -3.6276703600
  U        -1.6462240744        5.5456278364       -3.5522713400
  U         3.5656524576        2.1148012342        5.8556197631
  U         0.0679588174        0.0213538454       -7.0894285721
  U         0.5138021795       -3.9828098729       -5.7827530623
  U        -2.4862991264       -5.6740707804        3.4811318708
  U        -0.5471409831       -7.1579324230        0.0135770580
  U         7.1949966816        1.0943839853       -0.2857335765
  U        -3.1839836353        2.3019372555       -5.7979635268
  U         2.5212818820        5.4636185163        3.5804108785
  U        -1.7304175277        5.9361929275        4.0880573020
  U        -2.4986907228       -5.7002784668       -3.4731044250
  U         0.0670486165        0.0116127552        7.0822891738
  U        -5.7596012012       -3.4302319380        2.1985590441
  U         6.0238808503       -0.4610722760       -3.6286865325
  U        -3.9278668382        6.2392336507        0.0356117643
  U        -6.1274423374        0.5296287993       -3.4660124787
  U        -3.1687826631        2.2667999728        5.7756831654
  U        -5.7734278580       -3.4494342716       -2.2048950552
  U         3.4987830248       -6.0589837335       -0.0046111202
  U         4.2280426949       -4.2037205324        3.5934667467
  U         3.5820451876        2.1209086193       -5.8303201042
  U         4.7349338456        5.0210433010       -0.3172655821
  U        -6.5365963541        2.8641740664        0.0155743622
  U         6.0136574976       -0.4673623725        3.5961077972
  U        -6.1630751191        0.5267914136        3.4633216618
  U         4.2275473286       -4.2106548296       -3.5922272505
  U         0.5167583024       -3.9590605651        5.7630490602
  O         6.0247211257        3.4627718266        0.7728991779
  O         3.1034084803        6.9181763222       -4.5344852389
  O        -3.9280197258        2.9994906436       -7.2471164153
  O        -5.5899166200        4.8898423807        0.8304040240
  O         4.5897031600       -0.4542733843        2.3361833892
  O        -2.3287167028       -6.9504704449        1.5060275058
  O        -4.5436438571       -4.5432848433        3.9120556911
  O        -6.4243575631       -2.9629333435       -0.0002753334
  O         0.4192408463        5.5777560970       -4.5658421431
  O        -7.2402984352        1.2499388148       -1.4773341624
  O         6.1221502588        3.5376948838       -0.7987595324
  O        -3.9187608066        2.9925843459        7.2256011187
  O         3.0977330156        6.8975411214        4.5300244832
  O        -5.5958727053        4.8853251130       -0.8293675876
  O        -4.5410848857       -4.5430659486       -3.9119320104
  O        -0.6031679326       -8.8883687034       -0.0043211262
  O        -7.2896009470       -4.3140901619        2.6610067590
  O         2.3806283464        3.6734797061       -3.0485404225
  O        -6.7416222054        2.4553369940       -2.2910509007
  O         0.4470130145        5.5957909239        4.5896721882
  O        -7.2941002758        1.2650447983        1.4814783307
  O        -7.3030870724       -4.3189112477       -2.6603424073
  O        -4.5672481723       -5.4299804621        2.5362846771
  O        -0.5414542985       -5.5742666625        0.4957251153
  O         4.9075934644       -5.0593562886        1.5468363498
  O         6.8395293581        1.2287797529       -2.2638202548
  O         3.4329373018       -3.1088304993        2.5650441265
  O         0.4482249296        6.4765685980       -3.0801039492
  O        -2.7477707880        4.7719285117       -0.2447321888
  O         4.4679063678        2.6520226804       -7.3281813590
  O         2.3113169202        3.8715461739        2.1209225091
  O        -6.7638106210        2.4666467651        2.2923271621
  O        -4.5778699711       -5.4353562433       -2.5404764580
  O         4.9190533988       -5.0606529564       -1.5470944323
  O         3.2223221207       -3.2218508496       -2.6433187079
  O         5.6234392982        1.5174555363       -4.7995565026
  O         7.5850257745       -0.6250144488       -4.5426508309
  O         6.0058762871       -2.7726065402       -2.9503712724
  O         6.7009705176        1.1826165388        2.1985129910