 DBCSR| CPU Multiplication driver                                           XSMM
 DBCSR| Multrec recursion limit                                              512
 DBCSR| Multiplication stack size                                           1000
 DBCSR| Maximum elements for images                                    UNLIMITED
 DBCSR| Multiplicative factor virtual images                                   1
 DBCSR| Use multiplication densification                                       T
 DBCSR| Multiplication size stacks                                             3
 DBCSR| Use memory pool for CPU allocation                                     F
 DBCSR| Number of 3D layers                                               SINGLE
 DBCSR| Use MPI memory allocation                                              F
 DBCSR| Use RMA algorithm                                                      F
 DBCSR| Use Communication thread                                               T
 DBCSR| Communication thread load                                             87
 DBCSR| MPI: My node id                                                        0
 DBCSR| MPI: Number of nodes                                                  56
 DBCSR| OMP: Current number of threads                                         1
 DBCSR| OMP: Max number of threads                                             1
 DBCSR| Split modifier for TAS multiplication algorithm                  1.0E+00


  **** **** ******  **  PROGRAM STARTED AT               2023-09-27 11:24:15.812
 ***** ** ***  *** **   PROGRAM STARTED ON                           ibc11b07n38
 **    ****   ******    PROGRAM STARTED BY                                 junli
 ***** **    ** ** **   PROGRAM PROCESS ID                                 13387
  **** **  *******  **  PROGRAM STARTED IN     /WORK/junli_work/libin/1_U28/orin

 CP2K| version string:                                          CP2K version 9.1
 CP2K| source code revision number:                                  git:d8d7100
 CP2K| cp2kflags: omp libint fftw3 libxc elpa parallel mpi3 scalapack cosma xsmm
 CP2K|             plumed2 spglib libvori libbqb
 CP2K| is freely available from                            https://www.cp2k.org/
 CP2K| Program compiled at                          Sun Aug 13 14:10:33 CST 2023
 CP2K| Program compiled on                                               ibcln01
 CP2K| Program compiled for                                                local
 CP2K| Data directory path                         /apps/soft/cp2k/cp2k-9.1/data
 CP2K| Input file name                                                  cp2k.inp

 GLOBAL| Force Environment number                                              1
 GLOBAL| Basis set file name                                        BASIS_MOLOPT
 GLOBAL| Potential file name                                      GTH_POTENTIALS
 GLOBAL| MM Potential file name                                     MM_POTENTIAL
 GLOBAL| Coordinate file name                                            U28.xyz
 GLOBAL| Method name                                                        CP2K
 GLOBAL| Project name                                                        U28
 GLOBAL| Run type                                                        GEO_OPT
 GLOBAL| FFT library                                                       FFTW3
 GLOBAL| Diagonalization library                                            ELPA
 GLOBAL| Minimum number of eigenvectors for ELPA usage                        16
 GLOBAL| Orthonormality check for eigenvectors                          DISABLED
 GLOBAL| Matrix multiplication library                                     COSMA
 GLOBAL| All-to-all communication in single precision                          F
 GLOBAL| FFTs using library dependent lengths                                  F
 GLOBAL| Grid backend                                                       AUTO
 GLOBAL| Global print level                                                  LOW
 GLOBAL| MPI I/O enabled                                                       T
 GLOBAL| Total number of message passing processes                            56
 GLOBAL| Number of threads for this process                                    1
 GLOBAL| This output is from process                                           0
 GLOBAL| Stack size for threads created by OpenMP (OMP_STACKSIZE)        default
 GLOBAL| CPU model name                Intel(R) Xeon(R) Gold 6258R CPU @ 2.70GHz
 GLOBAL| CPUID                                                              1003

 MEMORY| system memory details [Kb]
 MEMORY|                        rank 0           min           max       average
 MEMORY| MemTotal            196695912     196695912     196695912     196695912
 MEMORY| MemFree             169902248     169902248     169902248     169902248
 MEMORY| Buffers                     0             0             0             0
 MEMORY| Cached                2303540       2303540       2303540       2303540
 MEMORY| Slab                  4118188       4118188       4118188       4118188
 MEMORY| SReclaimable          1285912       1285912       1285912       1285912
 MEMORY| MemLikelyFree       173491700     173491700     173491700     173491700


 *******************************************************************************
 *******************************************************************************
 **                                                                           **
 **     #####                         ##              ##                      **
 **    ##   ##            ##          ##              ##                      **
 **   ##     ##                       ##            ######                    **
 **   ##     ##  ##   ##  ##   #####  ##  ##   ####   ##    #####    #####    **
 **   ##     ##  ##   ##  ##  ##      ## ##   ##      ##   ##   ##  ##   ##   **
 **   ##  ## ##  ##   ##  ##  ##      ####     ###    ##   ######   ######    **
 **    ##  ###   ##   ##  ##  ##      ## ##      ##   ##   ##       ##        **
 **     #######   #####   ##   #####  ##  ##  ####    ##    #####   ##        **
 **           ##                                                    ##        **
 **                                                                           **
 **                                                ... make the atoms dance   **
 **                                                                           **
 **            Copyright (C) by CP2K developers group (2000-2021)             **
 **                      J. Chem. Phys. 152, 194103 (2020)                    **
 **                                                                           **
 *******************************************************************************


 TOTAL NUMBERS AND MAXIMUM NUMBERS

  Total number of            - Atomic kinds:                                   3
                             - Atoms:                                        196
                             - Shell sets:                                   196
                             - Shells:                                      1148
                             - Primitive Cartesian functions:               1064
                             - Cartesian basis functions:                   3948
                             - Spherical basis functions:                   3388

  Maximum angular momentum of- Orbital basis functions:                        4
                             - Local part of the GTH pseudopotential:          2
                             - Non-local part of the GTH pseudopotential:      3


 SCF PARAMETERS         Density guess:                                   RESTART
                        --------------------------------------------------------
                        max_scf:                                              50
                        max_scf_history:                                       0
                        max_diis:                                              4
                        --------------------------------------------------------
                        eps_scf:                                        1.00E-05
                        eps_scf_history:                                0.00E+00
                        eps_diis:                                       1.00E-01
                        eps_eigval:                                     1.00E-05
                        --------------------------------------------------------
                        level_shift [a.u.]:                                 0.00
                        --------------------------------------------------------
                        Outer loop SCF in use 
                        No variables optimised in outer loop
                        eps_scf                                         1.00E-05
                        max_scf                                               10
                        No outer loop optimization
                        step_size                                       5.00E-01

 BFGS| Use rational function optimization for step estimation:                NO
 BFGS| Use model Hessian for initial guess:                                  YES
 BFGS| Restart Hessian:                                                       NO
 BFGS| Trust radius:                                                       0.472

 *******************************************************************************
 ***                     STARTING GEOMETRY OPTIMIZATION                      ***
 ***                                   BFGS                                  ***
 *******************************************************************************

 Number of electrons:                                                       1484
 Number of occupied orbitals:                                                742
 Number of molecular orbitals:                                               742

 Number of orbital functions:                                               3388
 Number of independent orbital functions:                                   3388

 Extrapolation method: initial_guess

 *** WARNING in qs_initial_guess.F:309 :: User requested to restart the    ***
 *** wavefunction from the file named: U28-RESTART.wfn. This file does not ***
 *** exist. Please check the existence of the file or change properly the  ***
 *** value of the keyword WFN_RESTART_FILE_NAME. Calculation continues     ***
 *** using ATOMIC GUESS.                                                   ***



 SCF WAVEFUNCTION OPTIMIZATION

  ----------------------------------- OT ---------------------------------------
  Minimizer      : DIIS                : direct inversion
                                         in the iterative subspace
                                         using   7 DIIS vectors
                                         safer DIIS on
  Preconditioner : FULL_SINGLE         : diagonalization based
  Precond_solver : DEFAULT
  stepsize       :    0.15000000                  energy_gap     :    0.20000000
  eps_taylor     :   0.10000E-15                  max_taylor     :             4
  ----------------------------------- OT ---------------------------------------

  Step     Update method      Time    Convergence         Total energy    Change
  ------------------------------------------------------------------------------
     1 OT DIIS     0.15E+00    5.9     0.03698482     -4332.1383327676 -4.33E+03
     2 OT DIIS     0.15E+00    2.1     0.07590022     -4168.5174872928  1.64E+02
     3 OT DIIS     0.15E+00    2.0     0.11123693     -4200.3423339844 -3.18E+01
     4 OT DIIS     0.15E+00    1.8     0.11830900     -4217.4482987053 -1.71E+01
     5 OT DIIS     0.15E+00    2.4     0.06733900     -4327.3567105995 -1.10E+02
     6 OT DIIS     0.15E+00    1.9     0.08539195     -4321.7627321706  5.59E+00
     7 OT DIIS     0.15E+00    2.0     0.02196167     -4397.0681041522 -7.53E+01
     8 OT DIIS     0.15E+00    2.0     0.02448240     -4410.2913119761 -1.32E+01
     9 OT DIIS     0.15E+00    2.0     0.02329895     -4415.5982115375 -5.31E+00
    10 OT DIIS     0.15E+00    1.8     0.02145531     -4424.3005847658 -8.70E+00
    11 OT DIIS     0.15E+00    2.1     0.01241273     -4431.5933031213 -7.29E+00
    12 OT DIIS     0.15E+00    2.1     0.00946014     -4436.2056012999 -4.61E+00
    13 OT DIIS     0.15E+00    2.1     0.00612998     -4439.0865576361 -2.88E+00
    14 OT DIIS     0.15E+00    2.0     0.00508824     -4440.8184792087 -1.73E+00
    15 OT DIIS     0.15E+00    2.0     0.00423256     -4442.0552131721 -1.24E+00
    16 OT DIIS     0.15E+00    2.0     0.00395813     -4442.9484590780 -8.93E-01
    17 OT DIIS     0.15E+00    2.0     0.00314553     -4443.8050517158 -8.57E-01
    18 OT DIIS     0.15E+00    2.0     0.00285191     -4444.4661947192 -6.61E-01
    19 OT DIIS     0.15E+00    2.0     0.00239259     -4444.9587423198 -4.93E-01
    20 OT DIIS     0.15E+00    1.8     0.00205506     -4445.4759659056 -5.17E-01
    21 OT DIIS     0.15E+00    1.8     0.00196711     -4445.8681001447 -3.92E-01
    22 OT DIIS     0.15E+00    1.8     0.00164247     -4446.2241942513 -3.56E-01
    23 OT DIIS     0.15E+00    2.1     0.00165963     -4446.4663137055 -2.42E-01
    24 OT DIIS     0.15E+00    2.0     0.00161173     -4446.6717511424 -2.05E-01
    25 OT DIIS     0.15E+00    2.0     0.00160665     -4446.8462391644 -1.74E-01
    26 OT DIIS     0.15E+00    2.1     0.00143802     -4446.9961674368 -1.50E-01
    27 OT DIIS     0.15E+00    2.0     0.00133449     -4447.1196072408 -1.23E-01
    28 OT DIIS     0.15E+00    2.0     0.00125854     -4447.2062053703 -8.66E-02
    29 OT DIIS     0.15E+00    2.0     0.00115938     -4447.3164614685 -1.10E-01
    30 OT DIIS     0.15E+00    2.0     0.00103407     -4447.3748274139 -5.84E-02
    31 OT DIIS     0.15E+00    2.0     0.00101591     -4447.4500594205 -7.52E-02
    32 OT DIIS     0.15E+00    2.0     0.00094255     -4447.5050886594 -5.50E-02
    33 OT DIIS     0.15E+00    1.8     0.00089212     -4447.5675507046 -6.25E-02
    34 OT DIIS     0.15E+00    2.0     0.00082881     -4447.6272933314 -5.97E-02
    35 OT DIIS     0.15E+00    2.0     0.00080365     -4447.6942513856 -6.70E-02
    36 OT DIIS     0.15E+00    2.0     0.00080512     -4447.7593577124 -6.51E-02
    37 OT DIIS     0.15E+00    2.0     0.00078210     -4447.8265769134 -6.72E-02
    38 OT DIIS     0.15E+00    1.8     0.00079104     -4447.8758011157 -4.92E-02
    39 OT DIIS     0.15E+00    2.0     0.00078914     -4447.9382158590 -6.24E-02
    40 OT DIIS     0.15E+00    2.2     0.00080732     -4447.9761857986 -3.80E-02
    41 OT DIIS     0.15E+00    1.7     0.00077439     -4448.0176865584 -4.15E-02
    42 OT DIIS     0.15E+00    1.8     0.00072448     -4448.0531495436 -3.55E-02
    43 OT DIIS     0.15E+00    2.0     0.00067371     -4448.0916599308 -3.85E-02
    44 OT DIIS     0.15E+00    2.0     0.00064416     -4448.1354403514 -4.38E-02
    45 OT DIIS     0.15E+00    2.0     0.00061557     -4448.1741645647 -3.87E-02
    46 OT DIIS     0.15E+00    2.0     0.00062601     -4448.2173284510 -4.32E-02
    47 OT DIIS     0.15E+00    2.0     0.00062752     -4448.2610397782 -4.37E-02
    48 OT DIIS     0.15E+00    2.0     0.00067206     -4448.2984197369 -3.74E-02
    49 OT DIIS     0.15E+00    1.8     0.00068011     -4448.3321414139 -3.37E-02
    50 OT DIIS     0.15E+00    2.0     0.00067065     -4448.3625157051 -3.04E-02

  Leaving inner SCF loop after reaching    50 steps.


  Electronic density on regular grids:      -1484.0000000008       -0.0000000008
  Core density on regular grids:             1483.9999999310       -0.0000000690
  Total charge density on r-space grids:       -0.0000000698
  Total charge density g-space grids:          -0.0000000698

  Overlap energy of the core charge distribution:               0.59528421397556
  Self energy of the core charge distribution:             -10331.29031661960289
  Core Hamiltonian energy:                                   2695.86680036157259
  Hartree energy:                                            3975.49440223172314
  Exchange-correlation energy:                               -788.32318527248481
  Dispersion energy:                                           -0.70550062032883

  Total energy:                                             -4448.36251570514469

  outer SCF iter =    1 RMS gradient =   0.67E-03 energy =      -4448.3625157051

  ----------------------------------- OT ---------------------------------------
  Minimizer      : DIIS                : direct inversion
                                         in the iterative subspace
                                         using   7 DIIS vectors
                                         safer DIIS on
  Preconditioner : FULL_SINGLE         : diagonalization based
  Precond_solver : DEFAULT
  stepsize       :    0.15000000                  energy_gap     :    0.20000000
  eps_taylor     :   0.10000E-15                  max_taylor     :             4
  ----------------------------------- OT ---------------------------------------

  Step     Update method      Time    Convergence         Total energy    Change
  ------------------------------------------------------------------------------
     1 OT DIIS     0.15E+00    8.6     0.00261095     -4448.3881528668 -2.56E-02
     2 OT DIIS     0.15E+00    1.9     0.00528668     -4448.5497007070 -1.62E-01
     3 OT DIIS     0.15E+00    2.1     0.00358387     -4449.2988470850 -7.49E-01
     4 OT DIIS     0.15E+00    2.0     0.00245890     -4449.6198362651 -3.21E-01
     5 OT DIIS     0.15E+00    2.0     0.00139658     -4449.8525536799 -2.33E-01
     6 OT DIIS     0.15E+00    2.0     0.00125303     -4449.9751777594 -1.23E-01
     7 OT DIIS     0.15E+00    2.0     0.00105774     -4450.0424870796 -6.73E-02
     8 OT DIIS     0.15E+00    2.2     0.00071816     -4450.0936839773 -5.12E-02
     9 OT DIIS     0.15E+00    1.8     0.00061322     -4450.1311884101 -3.75E-02
    10 OT DIIS     0.15E+00    2.1     0.00050679     -4450.1496644234 -1.85E-02
    11 OT DIIS     0.15E+00    1.9     0.00044967     -4450.1696007720 -1.99E-02
    12 OT DIIS     0.15E+00    2.1     0.00044747     -4450.1816153236 -1.20E-02
    13 OT DIIS     0.15E+00    2.0     0.00038377     -4450.1918298745 -1.02E-02
    14 OT DIIS     0.15E+00    2.1     0.00033532     -4450.1969693742 -5.14E-03
    15 OT DIIS     0.15E+00    2.0     0.00034660     -4450.2019383181 -4.97E-03
    16 OT DIIS     0.15E+00    2.0     0.00027322     -4450.2065396787 -4.60E-03
    17 OT DIIS     0.15E+00    1.8     0.00022818     -4450.2092964325 -2.76E-03
    18 OT DIIS     0.15E+00    2.0     0.00021737     -4450.2117566783 -2.46E-03
    19 OT DIIS     0.15E+00    2.0     0.00018324     -4450.2140128822 -2.26E-03
    20 OT DIIS     0.15E+00    2.1     0.00017413     -4450.2159614015 -1.95E-03
    21 OT DIIS     0.15E+00    2.0     0.00015541     -4450.2176017330 -1.64E-03
    22 OT DIIS     0.15E+00    2.0     0.00014842     -4450.2192959256 -1.69E-03
    23 OT DIIS     0.15E+00    1.8     0.00014877     -4450.2210211321 -1.73E-03
    24 OT DIIS     0.15E+00    2.0     0.00014206     -4450.2224861527 -1.47E-03
    25 OT DIIS     0.15E+00    2.0     0.00013344     -4450.2238030017 -1.32E-03
    26 OT DIIS     0.15E+00    2.1     0.00013476     -4450.2253226975 -1.52E-03
    27 OT DIIS     0.15E+00    2.0     0.00012985     -4450.2262738976 -9.51E-04
    28 OT DIIS     0.15E+00    2.1     0.00012716     -4450.2272586640 -9.85E-04
    29 OT DIIS     0.15E+00    2.2     0.00011484     -4450.2278202824 -5.62E-04
    30 OT DIIS     0.15E+00    1.9     0.00010553     -4450.2287542462 -9.34E-04
    31 OT DIIS     0.15E+00    1.8     0.00009867     -4450.2294994741 -7.45E-04
    32 OT DIIS     0.15E+00    2.0     0.00009204     -4450.2301019551 -6.02E-04
    33 OT DIIS     0.15E+00    2.1     0.00008512     -4450.2307756043 -6.74E-04
    34 OT DIIS     0.15E+00    2.0     0.00008366     -4450.2316362398 -8.61E-04
    35 OT DIIS     0.15E+00    2.0     0.00008633     -4450.2322594333 -6.23E-04
    36 OT DIIS     0.15E+00    2.0     0.00008917     -4450.2329273096 -6.68E-04
    37 OT DIIS     0.15E+00    2.0     0.00008831     -4450.2333251323 -3.98E-04
    38 OT DIIS     0.15E+00    2.0     0.00008455     -4450.2340102021 -6.85E-04
    39 OT DIIS     0.15E+00    2.0     0.00008152     -4450.2344639057 -4.54E-04
    40 OT DIIS     0.15E+00    2.0     0.00007767     -4450.2347724228 -3.09E-04
    41 OT DIIS     0.15E+00    2.0     0.00006954     -4450.2351704975 -3.98E-04
    42 OT DIIS     0.15E+00    2.0     0.00006440     -4450.2356415413 -4.71E-04
    43 OT DIIS     0.15E+00    2.0     0.00006364     -4450.2360075627 -3.66E-04
    44 OT DIIS     0.15E+00    2.0     0.00006343     -4450.2364027165 -3.95E-04
    45 OT DIIS     0.15E+00    2.0     0.00006424     -4450.2367117191 -3.09E-04
    46 OT DIIS     0.15E+00    2.0     0.00006264     -4450.2371704619 -4.59E-04
    47 OT DIIS     0.15E+00    2.0     0.00006332     -4450.2375312659 -3.61E-04
    48 OT DIIS     0.15E+00    2.1     0.00006494     -4450.2377933549 -2.62E-04
    49 OT DIIS     0.15E+00    2.1     0.00006062     -4450.2381206986 -3.27E-04
    50 OT DIIS     0.15E+00    1.8     0.00005715     -4450.2384160641 -2.95E-04

  Leaving inner SCF loop after reaching    50 steps.


  Electronic density on regular grids:      -1484.0000000005       -0.0000000005
  Core density on regular grids:             1483.9999999310       -0.0000000690
  Total charge density on r-space grids:       -0.0000000695
  Total charge density g-space grids:          -0.0000000695

  Overlap energy of the core charge distribution:               0.59528421397556
  Self energy of the core charge distribution:             -10331.29031661960289
  Core Hamiltonian energy:                                   2691.25019410274581
  Hartree energy:                                            3978.61580560128232
  Exchange-correlation energy:                               -788.70388274222057
  Dispersion energy:                                           -0.70550062032883

  Total energy:                                             -4450.23841606414862

  outer SCF iter =    2 RMS gradient =   0.57E-04 energy =      -4450.2384160641

  ----------------------------------- OT ---------------------------------------
  Minimizer      : DIIS                : direct inversion
                                         in the iterative subspace
                                         using   7 DIIS vectors
                                         safer DIIS on
  Preconditioner : FULL_SINGLE         : diagonalization based
  Precond_solver : DEFAULT
  stepsize       :    0.15000000                  energy_gap     :    0.20000000
  eps_taylor     :   0.10000E-15                  max_taylor     :             4
  ----------------------------------- OT ---------------------------------------

  Step     Update method      Time    Convergence         Total energy    Change
  ------------------------------------------------------------------------------
     1 OT DIIS     0.15E+00    8.1     0.00006012     -4450.2386676452 -2.52E-04
     2 OT DIIS     0.15E+00    1.8     0.00022596     -4450.2380847170  5.83E-04
     3 OT DIIS     0.15E+00    2.0     0.00005301     -4450.2395183273 -1.43E-03
     4 OT DIIS     0.15E+00    2.0     0.00004541     -4450.2397399151 -2.22E-04
     5 OT DIIS     0.15E+00    1.9     0.00005912     -4450.2406218023 -8.82E-04
     6 OT DIIS     0.15E+00    2.0     0.00005080     -4450.2421244660 -1.50E-03
     7 OT DIIS     0.15E+00    2.0     0.00003833     -4450.2427750978 -6.51E-04
     8 OT DIIS     0.15E+00    2.1     0.00004638     -4450.2433991831 -6.24E-04
     9 OT DIIS     0.15E+00    1.8     0.00003181     -4450.2440347715 -6.36E-04
    10 OT DIIS     0.15E+00    2.0     0.00003495     -4450.2442842224 -2.49E-04
    11 OT DIIS     0.15E+00    2.1     0.00003329     -4450.2447042711 -4.20E-04
    12 OT DIIS     0.15E+00    2.0     0.00002555     -4450.2450058021 -3.02E-04
    13 OT DIIS     0.15E+00    2.0     0.00002451     -4450.2452198397 -2.14E-04
    14 OT DIIS     0.15E+00    2.1     0.00002456     -4450.2455017100 -2.82E-04
    15 OT DIIS     0.15E+00    2.0     0.00002312     -4450.2456983061 -1.97E-04
    16 OT DIIS     0.15E+00    2.0     0.00002387     -4450.2459268241 -2.29E-04
    17 OT DIIS     0.15E+00    2.2     0.00002465     -4450.2462288521 -3.02E-04
    18 OT DIIS     0.15E+00    2.3     0.00002003     -4450.2464093746 -1.81E-04
    19 OT DIIS     0.15E+00    2.1     0.00002160     -4450.2465980567 -1.89E-04
    20 OT DIIS     0.15E+00    2.0     0.00002490     -4450.2467481284 -1.50E-04
    21 OT DIIS     0.15E+00    1.9     0.00001850     -4450.2469225340 -1.74E-04
    22 OT DIIS     0.15E+00    2.0     0.00001983     -4450.2470682004 -1.46E-04
    23 OT DIIS     0.15E+00    2.1     0.00002375     -4450.2471993239 -1.31E-04
    24 OT DIIS     0.15E+00    2.0     0.00002084     -4450.2473780324 -1.79E-04
    25 OT SD       0.15E+00    2.0     0.00002185     -4450.2474360128 -5.80E-05
    26 OT DIIS     0.15E+00    2.0     0.00010492     -4450.2472470038  1.89E-04
    27 OT DIIS     0.15E+00    1.9     0.00002068     -4450.2476726624 -4.26E-04
    28 OT SD       0.15E+00    2.0     0.00002047     -4450.2477879097 -1.15E-04
    29 OT DIIS     0.15E+00    2.0     0.00009047     -4450.2476424362  1.45E-04
    30 OT DIIS     0.15E+00    2.0     0.00001875     -4450.2479520510 -3.10E-04
    31 OT DIIS     0.15E+00    2.0     0.00001752     -4450.2483321496 -3.80E-04
    32 OT SD       0.15E+00    2.0     0.00001390     -4450.2485685905 -2.36E-04
    33 OT SD       0.15E+00    1.8     0.00002785     -4450.2485969148 -2.83E-05
    34 OT DIIS     0.15E+00    2.0     0.00013059     -4450.2481716086  4.25E-04
    35 OT DIIS     0.15E+00    2.0     0.00001242     -4450.2487069954 -5.35E-04
    36 OT DIIS     0.15E+00    2.1     0.00001255     -4450.2487305224 -2.35E-05
    37 OT DIIS     0.15E+00    2.0     0.00001241     -4450.2488392169 -1.09E-04
    38 OT DIIS     0.15E+00    2.1     0.00001566     -4450.2489077775 -6.86E-05
    39 OT DIIS     0.15E+00    2.1     0.00001390     -4450.2490309280 -1.23E-04
    40 OT DIIS     0.15E+00    1.8     0.00001170     -4450.2490370298 -6.10E-06
    41 OT DIIS     0.15E+00    1.8     0.00001339     -4450.2492096151 -1.73E-04
    42 OT SD       0.15E+00    2.0     0.00001379     -4450.2493828085 -1.73E-04
    43 OT DIIS     0.15E+00    2.0     0.00006052     -4450.2493134799  6.93E-05
    44 OT DIIS     0.15E+00    2.0     0.00001175     -4450.2493454701 -3.20E-05
    45 OT DIIS     0.15E+00    2.0     0.00000996     -4450.2494209460 -7.55E-05

  *** SCF run converged in    45 steps ***


  Electronic density on regular grids:      -1484.0000000007       -0.0000000007
  Core density on regular grids:             1483.9999999310       -0.0000000690
  Total charge density on r-space grids:       -0.0000000697
  Total charge density g-space grids:          -0.0000000697

  Overlap energy of the core charge distribution:               0.59528421397556
  Self energy of the core charge distribution:             -10331.29031661960289
  Core Hamiltonian energy:                                   2691.25610414760877
  Hartree energy:                                            3978.59939602472241
  Exchange-correlation energy:                               -788.70438809238954
  Dispersion energy:                                           -0.70550062032883

  Total energy:                                             -4450.24942094601374

  outer SCF iter =    3 RMS gradient =   0.10E-04 energy =      -4450.2494209460
  outer SCF loop converged in   3 iterations or  145 steps


 ENERGY| Total FORCE_EVAL ( QS ) energy [a.u.]:            -4450.249469997063898

 --------  Informations at step =     0 ------------
  Optimization Method        =                 BFGS
  Total Energy               =     -4450.2494699971
  Used time                  =              313.580
 ---------------------------------------------------

 --------------------------
 OPTIMIZATION STEP:      1
 --------------------------

  Step is scaled; Scaling factor =  0.09241

 Number of electrons:                                                       1484
 Number of occupied orbitals:                                                742
 Number of molecular orbitals:                                               742

 Number of orbital functions:                                               3388
 Number of independent orbital functions:                                   3388

 Extrapolation method: ASPC


 SCF WAVEFUNCTION OPTIMIZATION

  ----------------------------------- OT ---------------------------------------
  Minimizer      : DIIS                : direct inversion
                                         in the iterative subspace
                                         using   7 DIIS vectors
                                         safer DIIS on
  Preconditioner : FULL_SINGLE         : diagonalization based
  Precond_solver : DEFAULT
  stepsize       :    0.15000000                  energy_gap     :    0.20000000
  eps_taylor     :   0.10000E-15                  max_taylor     :             4
  ----------------------------------- OT ---------------------------------------

  Step     Update method      Time    Convergence         Total energy    Change
  ------------------------------------------------------------------------------
     1 OT DIIS     0.15E+00    5.9     0.00521358     -4458.2029148398 -4.46E+03
     2 OT DIIS     0.15E+00    2.2     0.00936936     -4452.3274209731  5.88E+00
     3 OT SD       0.15E+00    1.9     0.00588999     -4457.0538677776 -4.73E+00
     4 OT SD       0.15E+00    2.4     0.00974011     -4454.3530804209  2.70E+00
     5 OT SD       0.15E+00    2.0     0.01294503     -4444.9511875029  9.40E+00
     6 OT SD       0.15E+00    2.3     0.03159526     -4413.7692545688  3.12E+01
     7 OT DIIS     0.15E+00    2.0     0.04897895     -4282.9131247197  1.31E+02
     8 OT DIIS     0.15E+00    2.1     0.00411859     -4458.3394209436 -1.75E+02
     9 OT DIIS     0.15E+00    2.2     0.00600950     -4454.0505171207  4.29E+00
    10 OT SD       0.15E+00    2.1     0.00729756     -4456.1586486861 -2.11E+00
    11 OT DIIS     0.15E+00    2.2     0.01759327     -4445.3547040189  1.08E+01
    12 OT DIIS     0.15E+00    1.9     0.00572630     -4456.7329313940 -1.14E+01
    13 OT SD       0.15E+00    1.9     0.00616851     -4456.7604833135 -2.76E-02
    14 OT SD       0.15E+00    1.9     0.01070273     -4453.7085078468  3.05E+00
    15 OT DIIS     0.15E+00    2.0     0.02818198     -4419.8414381543  3.39E+01
    16 OT DIIS     0.15E+00    2.1     0.01143914     -4453.0042619152 -3.32E+01
    17 OT DIIS     0.15E+00    2.2     0.00929365     -4452.2594054131  7.45E-01
    18 OT DIIS     0.15E+00    2.0     0.00544949     -4456.7712575442 -4.51E+00
    19 OT DIIS     0.15E+00    2.1     0.00558733     -4457.1035822698 -3.32E-01
    20 OT SD       0.15E+00    2.1     0.00514784     -4457.5397470310 -4.36E-01
    21 OT DIIS     0.15E+00    1.9     0.00903180     -4455.3809580309  2.16E+00
    22 OT DIIS     0.15E+00    2.0     0.00649821     -4457.7531072364 -2.37E+00
    23 OT DIIS     0.15E+00    1.9     0.00857880     -4457.1265962550  6.27E-01
    24 OT DIIS     0.15E+00    2.1     0.00476900     -4459.0106321803 -1.88E+00
    25 OT DIIS     0.15E+00    2.0     0.00443648     -4459.1541623283 -1.44E-01
    26 OT DIIS     0.15E+00    2.1     0.00128941     -4459.8487615161 -6.95E-01
    27 OT DIIS     0.15E+00    2.2     0.00080388     -4459.9225521376 -7.38E-02
    28 OT DIIS     0.15E+00    2.1     0.00078226     -4459.9630320277 -4.05E-02
    29 OT DIIS     0.15E+00    1.9     0.00047585     -4459.9975979576 -3.46E-02
    30 OT DIIS     0.15E+00    2.0     0.00044582     -4460.0383719995 -4.08E-02
    31 OT DIIS     0.15E+00    2.1     0.00040577     -4460.0709824965 -3.26E-02
    32 OT DIIS     0.15E+00    2.1     0.00049698     -4460.0814880529 -1.05E-02
    33 OT DIIS     0.15E+00    2.0     0.00033000     -4460.1299835662 -4.85E-02
    34 OT DIIS     0.15E+00    2.0     0.00032497     -4460.1520040577 -2.20E-02
    35 OT DIIS     0.15E+00    2.1     0.00035390     -4460.1772218855 -2.52E-02
    36 OT DIIS     0.15E+00    2.0     0.00028081     -4460.2085926430 -3.14E-02
    37 OT DIIS     0.15E+00    2.2     0.00050154     -4460.2059945938  2.60E-03
    38 OT DIIS     0.15E+00    2.1     0.00025400     -4460.2262171906 -2.02E-02
    39 OT DIIS     0.15E+00    2.1     0.00019424     -4460.2351636013 -8.95E-03
    40 OT DIIS     0.15E+00    2.0     0.00021483     -4460.2379679422 -2.80E-03
    41 OT DIIS     0.15E+00    1.7     0.00016529     -4460.2447613595 -6.79E-03
    42 OT DIIS     0.15E+00    2.1     0.00015688     -4460.2505330175 -5.77E-03
    43 OT DIIS     0.15E+00    1.9     0.00013113     -4460.2538916837 -3.36E-03
    44 OT DIIS     0.15E+00    2.1     0.00016702     -4460.2581625351 -4.27E-03
    45 OT DIIS     0.15E+00    2.0     0.00009977     -4460.2632205561 -5.06E-03
    46 OT DIIS     0.15E+00    2.1     0.00012741     -4460.2653564956 -2.14E-03
    47 OT DIIS     0.15E+00    2.1     0.00010271     -4460.2681037843 -2.75E-03
    48 OT DIIS     0.15E+00    2.1     0.00009620     -4460.2730228555 -4.92E-03
    49 OT DIIS     0.15E+00    2.1     0.00009194     -4460.2757220651 -2.70E-03
    50 OT DIIS     0.15E+00    2.1     0.00008760     -4460.2793443001 -3.62E-03

  Leaving inner SCF loop after reaching    50 steps.


  Electronic density on regular grids:      -1483.9999999837        0.0000000163
  Core density on regular grids:             1483.9999999310       -0.0000000690
  Total charge density on r-space grids:       -0.0000000526
  Total charge density g-space grids:          -0.0000000527

  Overlap energy of the core charge distribution:               0.00082074643465
  Self energy of the core charge distribution:             -10331.29031661960289
  Core Hamiltonian energy:                                   2685.96511755865868
  Hartree energy:                                            3973.89669747933385
  Exchange-correlation energy:                               -788.14674284402440
  Dispersion energy:                                           -0.70492062093201

  Total energy:                                             -4460.27934430013283

  outer SCF iter =    1 RMS gradient =   0.88E-04 energy =      -4460.2793443001

  ----------------------------------- OT ---------------------------------------
  Minimizer      : DIIS                : direct inversion
                                         in the iterative subspace
                                         using   7 DIIS vectors
                                         safer DIIS on
  Preconditioner : FULL_SINGLE         : diagonalization based
  Precond_solver : DEFAULT
  stepsize       :    0.15000000                  energy_gap     :    0.20000000
  eps_taylor     :   0.10000E-15                  max_taylor     :             4
  ----------------------------------- OT ---------------------------------------

  Step     Update method      Time    Convergence         Total energy    Change
  ------------------------------------------------------------------------------
     1 OT DIIS     0.15E+00    8.7     0.00018525     -4460.2815754157 -2.23E-03
     2 OT DIIS     0.15E+00    2.1     0.00028851     -4460.2889601344 -7.38E-03
     3 OT DIIS     0.15E+00    2.1     0.00018475     -4460.2922922407 -3.33E-03
     4 OT DIIS     0.15E+00    2.1     0.00017905     -4460.2979828370 -5.69E-03
     5 OT DIIS     0.15E+00    2.2     0.00012075     -4460.3027715970 -4.79E-03
     6 OT DIIS     0.15E+00    2.2     0.00010115     -4460.3046187028 -1.85E-03
     7 OT SD       0.15E+00    2.2     0.00009638     -4460.3058245025 -1.21E-03
     8 OT SD       0.15E+00    1.9     0.00011448     -4460.3093091861 -3.48E-03
     9 OT SD       0.15E+00    2.1     0.00024878     -4460.3119683814 -2.66E-03
    10 OT DIIS     0.15E+00    2.1     0.00107169     -4460.2825913824  2.94E-02
    11 OT SD       0.15E+00    1.9     0.00009243     -4460.3005115852 -1.79E-02
    12 OT DIIS     0.15E+00    2.1     0.00019725     -4460.3015916687 -1.08E-03
    13 OT DIIS     0.15E+00    2.1     0.00008978     -4460.3016219050 -3.02E-05
    14 OT SD       0.15E+00    1.9     0.00008622     -4460.3036707842 -2.05E-03
    15 OT DIIS     0.15E+00    2.2     0.00023464     -4460.3038456632 -1.75E-04
    16 OT DIIS     0.15E+00    2.2     0.00007283     -4460.3051859811 -1.34E-03
    17 OT DIIS     0.15E+00    2.2     0.00007157     -4460.3067713128 -1.59E-03
    18 OT SD       0.15E+00    2.1     0.00007102     -4460.3070267705 -2.55E-04
    19 OT SD       0.15E+00    2.1     0.00009126     -4460.3088122607 -1.79E-03
    20 OT SD       0.15E+00    1.9     0.00028749     -4460.3085306369  2.82E-04
    21 OT DIIS     0.15E+00    2.1     0.00139716     -4460.2522230670  5.63E-02
    22 OT SD       0.15E+00    2.2     0.00006919     -4460.3034107955 -5.12E-02
    23 OT SD       0.15E+00    1.9     0.00011274     -4460.3046375178 -1.23E-03
    24 OT DIIS     0.15E+00    2.1     0.00039540     -4460.3011703611  3.47E-03
    25 OT SD       0.15E+00    2.1     0.00007216     -4460.3065584992 -5.39E-03
    26 OT DIIS     0.15E+00    2.0     0.00019519     -4460.3067237577 -1.65E-04
    27 OT DIIS     0.15E+00    2.1     0.00006287     -4460.3080853809 -1.36E-03
    28 OT SD       0.15E+00    2.1     0.00005905     -4460.3086141628 -5.29E-04
    29 OT SD       0.15E+00    2.1     0.00006343     -4460.3099242765 -1.31E-03
    30 OT SD       0.15E+00    2.1     0.00010337     -4460.3111276784 -1.20E-03
    31 OT DIIS     0.15E+00    1.9     0.00038746     -4460.3081400059  2.99E-03
    32 OT SD       0.15E+00    2.1     0.00005806     -4460.3069455914  1.19E-03
    33 OT DIIS     0.15E+00    2.0     0.00009520     -4460.3079097492 -9.64E-04
    34 OT DIIS     0.15E+00    1.9     0.00006042     -4460.3078727789  3.70E-05
    35 OT SD       0.15E+00    2.2     0.00006328     -4460.3107403665 -2.87E-03
    36 OT DIIS     0.15E+00    2.2     0.00016755     -4460.3109042141 -1.64E-04
    37 OT DIIS     0.15E+00    2.1     0.00005544     -4460.3118665331 -9.62E-04
    38 OT DIIS     0.15E+00    2.1     0.00005172     -4460.3131696659 -1.30E-03
    39 OT SD       0.15E+00    2.0     0.00005129     -4460.3135084233 -3.39E-04
    40 OT SD       0.15E+00    2.2     0.00005686     -4460.3144829349 -9.75E-04
    41 OT SD       0.15E+00    2.0     0.00012503     -4460.3151256595 -6.43E-04
    42 OT DIIS     0.15E+00    2.1     0.00056334     -4460.3067003076  8.43E-03
    43 OT DIIS     0.15E+00    2.0     0.00005067     -4460.3122040107 -5.50E-03
    44 OT DIIS     0.15E+00    2.1     0.00005100     -4460.3126746787 -4.71E-04
    45 OT DIIS     0.15E+00    2.1     0.00005981     -4460.3136268926 -9.52E-04
    46 OT SD       0.15E+00    2.2     0.00005584     -4460.3162927817 -2.67E-03
    47 OT DIIS     0.15E+00    2.1     0.00015744     -4460.3162598967  3.29E-05
    48 OT DIIS     0.15E+00    2.0     0.00004922     -4460.3167894158 -5.30E-04
    49 OT DIIS     0.15E+00    2.1     0.00004415     -4460.3181912320 -1.40E-03
    50 OT SD       0.15E+00    2.1     0.00004288     -4460.3183593958 -1.68E-04

  Leaving inner SCF loop after reaching    50 steps.


  Electronic density on regular grids:      -1483.9999999836        0.0000000164
  Core density on regular grids:             1483.9999999310       -0.0000000690
  Total charge density on r-space grids:       -0.0000000526
  Total charge density g-space grids:          -0.0000000526

  Overlap energy of the core charge distribution:               0.00082074643465
  Self energy of the core charge distribution:             -10331.29031661960289
  Core Hamiltonian energy:                                   2686.15730157062080
  Hartree energy:                                            3973.71593339680567
  Exchange-correlation energy:                               -788.19717786907927
  Dispersion energy:                                           -0.70492062093201

  Total energy:                                             -4460.31835939575376

  outer SCF iter =    2 RMS gradient =   0.43E-04 energy =      -4460.3183593958

  ----------------------------------- OT ---------------------------------------
  Minimizer      : DIIS                : direct inversion
                                         in the iterative subspace
                                         using   7 DIIS vectors
                                         safer DIIS on
  Preconditioner : FULL_SINGLE         : diagonalization based
  Precond_solver : DEFAULT
  stepsize       :    0.15000000                  energy_gap     :    0.20000000
  eps_taylor     :   0.10000E-15                  max_taylor     :             4
  ----------------------------------- OT ---------------------------------------

  Step     Update method      Time    Convergence         Total energy    Change
  ------------------------------------------------------------------------------
     1 OT DIIS     0.15E+00    8.9     0.00004870     -4460.3190396033 -6.80E-04
     2 OT DIIS     0.15E+00    2.2     0.00009305     -4460.3196082092 -5.69E-04
     3 OT SD       0.15E+00    2.1     0.00004863     -4460.3199760731 -3.68E-04
     4 OT SD       0.15E+00    2.0     0.00006211     -4460.3208093447 -8.33E-04
     5 OT SD       0.15E+00    2.1     0.00015554     -4460.3211116364 -3.02E-04
     6 OT DIIS     0.15E+00    2.1     0.00065591     -4460.3087444423  1.24E-02
     7 OT DIIS     0.15E+00    1.8     0.00004139     -4460.3176329696 -8.89E-03
     8 OT DIIS     0.15E+00    1.8     0.00004179     -4460.3178829213 -2.50E-04
     9 OT DIIS     0.15E+00    1.9     0.00004471     -4460.3184907378 -6.08E-04
    10 OT SD       0.15E+00    1.9     0.00005150     -4460.3190885059 -5.98E-04
    11 OT DIIS     0.15E+00    1.8     0.00014085     -4460.3191079692 -1.95E-05
    12 OT DIIS     0.15E+00    2.1     0.00004092     -4460.3188561396  2.52E-04
    13 OT SD       0.15E+00    2.0     0.00004057     -4460.3190829832 -2.27E-04
    14 OT SD       0.15E+00    2.1     0.00004197     -4460.3196984000 -6.15E-04
    15 OT SD       0.15E+00    1.8     0.00005831     -4460.3202697286 -5.71E-04
    16 OT SD       0.15E+00    2.0     0.00019043     -4460.3198121719  4.58E-04
    17 OT DIIS     0.15E+00    2.0     0.00089149     -4460.2961955686  2.36E-02
    18 OT SD       0.15E+00    2.0     0.00004004     -4460.3186158097 -2.24E-02
    19 OT DIIS     0.15E+00    2.0     0.00004082     -4460.3192150758 -5.99E-04
    20 OT SD       0.15E+00    2.1     0.00004702     -4460.3195116637 -2.97E-04
    21 OT DIIS     0.15E+00    1.9     0.00012218     -4460.3196050538 -9.34E-05
    22 OT DIIS     0.15E+00    2.0     0.00004157     -4460.3198675344 -2.62E-04
    23 OT DIIS     0.15E+00    2.1     0.00004005     -4460.3212239753 -1.36E-03
    24 OT DIIS     0.15E+00    2.1     0.00003715     -4460.3213211721 -9.72E-05
    25 OT SD       0.15E+00    2.0     0.00003613     -4460.3214373463 -1.16E-04
    26 OT SD       0.15E+00    2.1     0.00003897     -4460.3219252570 -4.88E-04
    27 OT SD       0.15E+00    1.8     0.00006071     -4460.3223757729 -4.51E-04
    28 OT SD       0.15E+00    2.0     0.00020351     -4460.3216422520  7.34E-04
    29 OT DIIS     0.15E+00    2.0     0.00092216     -4460.2958057277  2.58E-02
    30 OT DIIS     0.15E+00    2.1     0.00003461     -4460.3203631666 -2.46E-02
    31 OT DIIS     0.15E+00    2.0     0.00003478     -4460.3205197200 -1.57E-04
    32 OT SD       0.15E+00    2.0     0.00003605     -4460.3211207999 -6.01E-04
    33 OT DIIS     0.15E+00    2.0     0.00007143     -4460.3213968388 -2.76E-04
    34 OT DIIS     0.15E+00    1.8     0.00003331     -4460.3212998649  9.70E-05
    35 OT DIIS     0.15E+00    2.1     0.00003304     -4460.3216466931 -3.47E-04
    36 OT SD       0.15E+00    1.9     0.00003299     -4460.3217246737 -7.80E-05
    37 OT SD       0.15E+00    1.8     0.00003386     -4460.3221337125 -4.09E-04
    38 OT SD       0.15E+00    1.9     0.00004433     -4460.3225246853 -3.91E-04
    39 OT SD       0.15E+00    2.0     0.00013905     -4460.3223849711  1.40E-04
    40 OT DIIS     0.15E+00    2.1     0.00064833     -4460.3098783306  1.25E-02
    41 OT DIIS     0.15E+00    2.1     0.00003252     -4460.3212240567 -1.13E-02
    42 OT DIIS     0.15E+00    1.8     0.00003408     -4460.3213468684 -1.23E-04
    43 OT SD       0.15E+00    2.0     0.00003717     -4460.3220191838 -6.72E-04
    44 OT DIIS     0.15E+00    2.0     0.00008999     -4460.3221604964 -1.41E-04
    45 OT DIIS     0.15E+00    1.9     0.00003362     -4460.3222273549 -6.69E-05
    46 OT DIIS     0.15E+00    2.1     0.00003169     -4460.3227867678 -5.59E-04
    47 OT SD       0.15E+00    2.0     0.00003175     -4460.3229350926 -1.48E-04
    48 OT SD       0.15E+00    1.8     0.00003395     -4460.3233105679 -3.75E-04
    49 OT SD       0.15E+00    2.0     0.00005906     -4460.3236277322 -3.17E-04
    50 OT DIIS     0.15E+00    1.8     0.00023643     -4460.3223520722  1.28E-03

  Leaving inner SCF loop after reaching    50 steps.


  Electronic density on regular grids:      -1484.0000003751       -0.0000003751
  Core density on regular grids:             1483.9999999310       -0.0000000690
  Total charge density on r-space grids:       -0.0000004441
  Total charge density g-space grids:          -0.0000004441

  Overlap energy of the core charge distribution:               0.00082074643465
  Self energy of the core charge distribution:             -10331.29031661960289
  Core Hamiltonian energy:                                   2686.25400116562105
  Hartree energy:                                            3973.65063383547658
  Exchange-correlation energy:                               -788.23257057921387
  Dispersion energy:                                           -0.70492062093201

  Total energy:                                             -4460.32235207221675

  outer SCF iter =    3 RMS gradient =   0.24E-03 energy =      -4460.3223520722

  ----------------------------------- OT ---------------------------------------
  Minimizer      : DIIS                : direct inversion
                                         in the iterative subspace
                                         using   7 DIIS vectors
                                         safer DIIS on
  Preconditioner : FULL_SINGLE         : diagonalization based
  Precond_solver : DEFAULT
  stepsize       :    0.15000000                  energy_gap     :    0.20000000
  eps_taylor     :   0.10000E-15                  max_taylor     :             4
  ----------------------------------- OT ---------------------------------------

  Step     Update method      Time    Convergence         Total energy    Change
  ------------------------------------------------------------------------------
     1 OT DIIS     0.15E+00    8.4     0.00003149     -4460.3224608193 -1.09E-04
     2 OT DIIS     0.15E+00    2.1     0.00004259     -4460.3227812192 -3.20E-04
     3 OT DIIS     0.15E+00    2.1     0.00003112     -4460.3228850374 -1.04E-04
     4 OT SD       0.15E+00    2.1     0.00003066     -4460.3229555222 -7.05E-05
     5 OT SD       0.15E+00    2.2     0.00003102     -4460.3233100252 -3.55E-04
     6 OT SD       0.15E+00    1.9     0.00003373     -4460.3236639585 -3.54E-04
     7 OT SD       0.15E+00    2.1     0.00006305     -4460.3239298342 -2.66E-04
     8 OT DIIS     0.15E+00    2.0     0.00023964     -4460.3224358269  1.49E-03
     9 OT DIIS     0.15E+00    2.1     0.00003022     -4460.3224556748 -1.98E-05
    10 OT DIIS     0.15E+00    2.1     0.00003258     -4460.3225367670 -8.11E-05
    11 OT SD       0.15E+00    1.8     0.00003757     -4460.3230842470 -5.47E-04
    12 OT SD       0.15E+00    2.1     0.00010469     -4460.3230964835 -1.22E-05
    13 OT DIIS     0.15E+00    2.0     0.00049153     -4460.3161296655  6.97E-03
    14 OT DIIS     0.15E+00    2.2     0.00003023     -4460.3235194218 -7.39E-03
    15 OT SD       0.15E+00    2.1     0.00002972     -4460.3240146061 -4.95E-04
    16 OT SD       0.15E+00    2.1     0.00003301     -4460.3243389297 -3.24E-04
    17 OT SD       0.15E+00    2.0     0.00006525     -4460.3245739365 -2.35E-04
    18 OT DIIS     0.15E+00    2.0     0.00025905     -4460.3228075623  1.77E-03
    19 OT SD       0.15E+00    2.0     0.00003060     -4460.3234771487 -6.70E-04
    20 OT SD       0.15E+00    2.1     0.00005432     -4460.3237034556 -2.26E-04
    21 OT DIIS     0.15E+00    2.1     0.00020689     -4460.3226577717  1.05E-03
    22 OT SD       0.15E+00    2.0     0.00002831     -4460.3240343324 -1.38E-03
    23 OT SD       0.15E+00    2.0     0.00003445     -4460.3243118245 -2.77E-04
    24 OT DIIS     0.15E+00    2.1     0.00009276     -4460.3243562648 -4.44E-05
    25 OT SD       0.15E+00    2.0     0.00002805     -4460.3243479757  8.29E-06
    26 OT SD       0.15E+00    2.1     0.00002887     -4460.3246432935 -2.95E-04
    27 OT SD       0.15E+00    2.0     0.00003815     -4460.3249246790 -2.81E-04
    28 OT SD       0.15E+00    2.0     0.00011911     -4460.3248109344  1.14E-04
    29 OT DIIS     0.15E+00    2.0     0.00054732     -4460.3158144944  9.00E-03
    30 OT DIIS     0.15E+00    2.0     0.00002773     -4460.3237574625 -7.94E-03
    31 OT DIIS     0.15E+00    1.9     0.00002885     -4460.3237819069 -2.44E-05
    32 OT SD       0.15E+00    2.0     0.00002974     -4460.3239089074 -1.27E-04
    33 OT SD       0.15E+00    2.1     0.00005254     -4460.3241157325 -2.07E-04
    34 OT DIIS     0.15E+00    2.1     0.00021262     -4460.3230309696  1.08E-03
    35 OT DIIS     0.15E+00    2.1     0.00002711     -4460.3243173416 -1.29E-03
    36 OT DIIS     0.15E+00    1.9     0.00002717     -4460.3245787330 -2.61E-04
    37 OT SD       0.15E+00    2.1     0.00002711     -4460.3245975852 -1.89E-05
    38 OT SD       0.15E+00    1.9     0.00002880     -4460.3248708767 -2.73E-04
    39 OT SD       0.15E+00    2.0     0.00004892     -4460.3251002633 -2.29E-04
    40 OT DIIS     0.15E+00    2.0     0.00018616     -4460.3243086675  7.92E-04
    41 OT SD       0.15E+00    2.1     0.00002694     -4460.3241481898  1.60E-04
    42 OT SD       0.15E+00    1.8     0.00003704     -4460.3243884110 -2.40E-04
    43 OT DIIS     0.15E+00    2.0     0.00012649     -4460.3241772569  2.11E-04
    44 OT SD       0.15E+00    2.0     0.00002648     -4460.3245293015 -3.52E-04
    45 OT SD       0.15E+00    2.0     0.00003185     -4460.3247752044 -2.46E-04
    46 OT DIIS     0.15E+00    2.0     0.00008645     -4460.3248214718 -4.63E-05
    47 OT DIIS     0.15E+00    2.0     0.00002636     -4460.3247513665  7.01E-05
    48 OT DIIS     0.15E+00    1.9     0.00002636     -4460.3247589562 -7.59E-06
    49 OT DIIS     0.15E+00    2.0     0.00002639     -4460.3248438339 -8.49E-05
    50 OT SD       0.15E+00    2.0     0.00002642     -4460.3249085943 -6.48E-05

  Leaving inner SCF loop after reaching    50 steps.


  Electronic density on regular grids:      -1483.9999999912        0.0000000088
  Core density on regular grids:             1483.9999999310       -0.0000000690
  Total charge density on r-space grids:       -0.0000000602
  Total charge density g-space grids:          -0.0000000602

  Overlap energy of the core charge distribution:               0.00082074643465
  Self energy of the core charge distribution:             -10331.29031661960289
  Core Hamiltonian energy:                                   2686.32773185802898
  Hartree energy:                                            3973.57826272987950
  Exchange-correlation energy:                               -788.23648668808573
  Dispersion energy:                                           -0.70492062093201

  Total energy:                                             -4460.32490859427708

  outer SCF iter =    4 RMS gradient =   0.26E-04 energy =      -4460.3249085943

  ----------------------------------- OT ---------------------------------------
  Minimizer      : DIIS                : direct inversion
                                         in the iterative subspace
                                         using   7 DIIS vectors
                                         safer DIIS on
  Preconditioner : FULL_SINGLE         : diagonalization based
  Precond_solver : DEFAULT
  stepsize       :    0.15000000                  energy_gap     :    0.20000000
  eps_taylor     :   0.10000E-15                  max_taylor     :             4
  ----------------------------------- OT ---------------------------------------

  Step     Update method      Time    Convergence         Total energy    Change
  ------------------------------------------------------------------------------
     1 OT DIIS     0.15E+00    8.6     0.00002844     -4460.3251665841 -2.58E-04
     2 OT DIIS     0.15E+00    2.0     0.00005171     -4460.3253709608 -2.04E-04
     3 OT DIIS     0.15E+00    2.1     0.00002759     -4460.3254863512 -1.15E-04
     4 OT SD       0.15E+00    2.1     0.00002733     -4460.3255058129 -1.95E-05
     5 OT SD       0.15E+00    2.1     0.00003089     -4460.3257770518 -2.71E-04
     6 OT SD       0.15E+00    1.8     0.00006415     -4460.3259586263 -1.82E-04
     7 OT DIIS     0.15E+00    1.9     0.00026732     -4460.3240621384  1.90E-03
     8 OT DIIS     0.15E+00    2.1     0.00002729     -4460.3245791853 -5.17E-04
     9 OT DIIS     0.15E+00    2.1     0.00003454     -4460.3246465105 -6.73E-05
    10 OT SD       0.15E+00    2.1     0.00002798     -4460.3248699828 -2.23E-04
    11 OT SD       0.15E+00    1.8     0.00005343     -4460.3250495843 -1.80E-04
    12 OT DIIS     0.15E+00    2.0     0.00022010     -4460.3238103038  1.24E-03
    13 OT SD       0.15E+00    1.9     0.00002607     -4460.3249307775 -1.12E-03
    14 OT SD       0.15E+00    2.1     0.00003020     -4460.3251709173 -2.40E-04
    15 OT DIIS     0.15E+00    1.8     0.00007002     -4460.3252817450 -1.11E-04
    16 OT DIIS     0.15E+00    1.9     0.00002613     -4460.3252135393  6.82E-05
    17 OT SD       0.15E+00    2.2     0.00002591     -4460.3252780916 -6.46E-05
    18 OT SD       0.15E+00    1.8     0.00002717     -4460.3255283568 -2.50E-04
    19 OT SD       0.15E+00    2.0     0.00004514     -4460.3257420850 -2.14E-04
    20 OT DIIS     0.15E+00    2.0     0.00018240     -4460.3250137262  7.28E-04
    21 OT SD       0.15E+00    1.9     0.00002567     -4460.3247268128  2.87E-04
    22 OT SD       0.15E+00    1.9     0.00003011     -4460.3249601398 -2.33E-04
    23 OT SD       0.15E+00    1.8     0.00007693     -4460.3250359841 -7.58E-05
    24 OT DIIS     0.15E+00    2.1     0.00034332     -4460.3216227640  3.41E-03
    25 OT DIIS     0.15E+00    2.1     0.00002513     -4460.3244151888 -2.79E-03
    26 OT SD       0.15E+00    2.0     0.00002737     -4460.3250599534 -6.45E-04
    27 OT SD       0.15E+00    2.0     0.00004947     -4460.3252312011 -1.71E-04
    28 OT DIIS     0.15E+00    2.1     0.00017948     -4460.3244139885  8.17E-04
    29 OT SD       0.15E+00    1.9     0.00002529     -4460.3246875430 -2.74E-04
    30 OT SD       0.15E+00    2.0     0.00003129     -4460.3249090266 -2.21E-04
    31 OT SD       0.15E+00    2.0     0.00008714     -4460.3249270675 -1.80E-05
    32 OT DIIS     0.15E+00    2.0     0.00039274     -4460.3203767820  4.55E-03
    33 OT SD       0.15E+00    2.0     0.00002568     -4460.3245573793 -4.18E-03
    34 OT SD       0.15E+00    2.0     0.00003898     -4460.3247541160 -1.97E-04
    35 OT DIIS     0.15E+00    2.0     0.00013853     -4460.3243949683  3.59E-04
    36 OT SD       0.15E+00    2.0     0.00002503     -4460.3245255607 -1.31E-04
    37 OT DIIS     0.15E+00    2.1     0.00003989     -4460.3247062574 -1.81E-04
    38 OT DIIS     0.15E+00    2.0     0.00002430     -4460.3247772501 -7.10E-05
    39 OT DIIS     0.15E+00    2.0     0.00002393     -4460.3248011463 -2.39E-05
    40 OT SD       0.15E+00    2.0     0.00002386     -4460.3248666470 -6.55E-05
    41 OT SD       0.15E+00    1.9     0.00002415     -4460.3250809662 -2.14E-04
    42 OT SD       0.15E+00    2.1     0.00002770     -4460.3252913767 -2.10E-04
    43 OT SD       0.15E+00    1.8     0.00006660     -4460.3253877222 -9.63E-05
    44 OT DIIS     0.15E+00    2.1     0.00028959     -4460.3229795693  2.41E-03
    45 OT DIIS     0.15E+00    2.1     0.00002371     -4460.3247298268 -1.75E-03
    46 OT DIIS     0.15E+00    2.2     0.00002441     -4460.3248399346 -1.10E-04
    47 OT SD       0.15E+00    2.1     0.00002535     -4460.3255592127 -7.19E-04
    48 OT SD       0.15E+00    2.0     0.00004816     -4460.3257051531 -1.46E-04
    49 OT DIIS     0.15E+00    2.1     0.00019262     -4460.3247468799  9.58E-04
    50 OT SD       0.15E+00    2.0     0.00002346     -4460.3256175434 -8.71E-04

  Leaving inner SCF loop after reaching    50 steps.


  Electronic density on regular grids:      -1483.9999999836        0.0000000164
  Core density on regular grids:             1483.9999999310       -0.0000000690
  Total charge density on r-space grids:       -0.0000000526
  Total charge density g-space grids:          -0.0000000526

  Overlap energy of the core charge distribution:               0.00082074643465
  Self energy of the core charge distribution:             -10331.29031661960289
  Core Hamiltonian energy:                                   2686.37470316308327
  Hartree energy:                                            3973.53988231376252
  Exchange-correlation energy:                               -788.24578652618698
  Dispersion energy:                                           -0.70492062093201

  Total energy:                                             -4460.32561754344260

  outer SCF iter =    5 RMS gradient =   0.23E-04 energy =      -4460.3256175434

  ----------------------------------- OT ---------------------------------------
  Minimizer      : DIIS                : direct inversion
                                         in the iterative subspace
                                         using   7 DIIS vectors
                                         safer DIIS on
  Preconditioner : FULL_SINGLE         : diagonalization based
  Precond_solver : DEFAULT
  stepsize       :    0.15000000                  energy_gap     :    0.20000000
  eps_taylor     :   0.10000E-15                  max_taylor     :             4
  ----------------------------------- OT ---------------------------------------

  Step     Update method      Time    Convergence         Total energy    Change
  ------------------------------------------------------------------------------
     1 OT DIIS     0.15E+00    8.6     0.00002389     -4460.3258249333 -2.07E-04
     2 OT DIIS     0.15E+00    1.8     0.00002873     -4460.3260275733 -2.03E-04
     3 OT SD       0.15E+00    2.2     0.00002396     -4460.3260728550 -4.53E-05
     4 OT SD       0.15E+00    1.8     0.00002521     -4460.3262867969 -2.14E-04
     5 OT SD       0.15E+00    2.1     0.00003627     -4460.3264836701 -1.97E-04
     6 OT SD       0.15E+00    2.0     0.00011587     -4460.3262967579  1.87E-04
     7 OT DIIS     0.15E+00    1.9     0.00052731     -4460.3179069772  8.39E-03
     8 OT DIIS     0.15E+00    2.0     0.00002358     -4460.3251491874 -7.24E-03
     9 OT SD       0.15E+00    1.9     0.00002372     -4460.3253550692 -2.06E-04
    10 OT SD       0.15E+00    2.0     0.00003200     -4460.3255395373 -1.84E-04
    11 OT DIIS     0.15E+00    1.8     0.00010261     -4460.3254236939  1.16E-04
    12 OT DIIS     0.15E+00    1.9     0.00002297     -4460.3253803981  4.33E-05
    13 OT SD       0.15E+00    2.0     0.00002364     -4460.3255099578 -1.30E-04
    14 OT SD       0.15E+00    2.0     0.00003278     -4460.3256907353 -1.81E-04
    15 OT DIIS     0.15E+00    1.9     0.00010730     -4460.3255391118  1.52E-04
    16 OT SD       0.15E+00    2.0     0.00002316     -4460.3254178471  1.21E-04
    17 OT SD       0.15E+00    2.1     0.00002695     -4460.3256087166 -1.91E-04
    18 OT SD       0.15E+00    2.0     0.00006720     -4460.3256825279 -7.38E-05
    19 OT DIIS     0.15E+00    1.9     0.00030593     -4460.3230483436  2.63E-03
    20 OT SD       0.15E+00    1.9     0.00002306     -4460.3252020026 -2.15E-03
    21 OT SD       0.15E+00    1.8     0.00002820     -4460.3253871553 -1.85E-04
    22 OT SD       0.15E+00    1.9     0.00007843     -4460.3254039173 -1.68E-05
    23 OT DIIS     0.15E+00    2.1     0.00035481     -4460.3216932275  3.71E-03
    24 OT DIIS     0.15E+00    2.1     0.00002254     -4460.3246084797 -2.92E-03
    25 OT SD       0.15E+00    2.0     0.00002552     -4460.3250424893 -4.34E-04
    26 OT SD       0.15E+00    2.0     0.00005757     -4460.3251368211 -9.43E-05
    27 OT DIIS     0.15E+00    2.1     0.00024445     -4460.3234492030  1.69E-03
    28 OT SD       0.15E+00    2.1     0.00002253     -4460.3245402914 -1.09E-03
    29 OT SD       0.15E+00    2.0     0.00003092     -4460.3247009279 -1.61E-04
    30 OT DIIS     0.15E+00    2.0     0.00009002     -4460.3246265782  7.43E-05
    31 OT SD       0.15E+00    1.8     0.00002240     -4460.3244325759  1.94E-04
    32 OT SD       0.15E+00    2.0     0.00003448     -4460.3245860081 -1.53E-04
    33 OT DIIS     0.15E+00    2.0     0.00012545     -4460.3242903797  2.96E-04
    34 OT SD       0.15E+00    2.2     0.00002273     -4460.3244127704 -1.22E-04
    35 OT SD       0.15E+00    2.1     0.00003508     -4460.3245681791 -1.55E-04
    36 OT DIIS     0.15E+00    2.0     0.00012665     -4460.3242757920  2.92E-04
    37 OT SD       0.15E+00    2.1     0.00002316     -4460.3244652686 -1.89E-04
    38 OT SD       0.15E+00    2.0     0.00004391     -4460.3245907772 -1.26E-04
    39 OT DIIS     0.15E+00    2.0     0.00017560     -4460.3238035183  7.87E-04
    40 OT DIIS     0.15E+00    2.1     0.00002189     -4460.3246579775 -8.54E-04
    41 OT DIIS     0.15E+00    2.0     0.00002234     -4460.3246667088 -8.73E-06
    42 OT DIIS     0.15E+00    2.1     0.00002129     -4460.3246990722 -3.24E-05
    43 OT DIIS     0.15E+00    2.0     0.00002139     -4460.3248247818 -1.26E-04
    44 OT DIIS     0.15E+00    2.0     0.00002148     -4460.3248601738 -3.54E-05
    45 OT DIIS     0.15E+00    2.1     0.00002127     -4460.3249419656 -8.18E-05
    46 OT SD       0.15E+00    2.1     0.00002135     -4460.3250006516 -5.87E-05
    47 OT SD       0.15E+00    2.1     0.00002211     -4460.3251717088 -1.71E-04
    48 OT SD       0.15E+00    2.1     0.00003301     -4460.3253276177 -1.56E-04
    49 OT DIIS     0.15E+00    1.9     0.00012417     -4460.3250556588  2.72E-04
    50 OT SD       0.15E+00    2.0     0.00002118     -4460.3247685853  2.87E-04

  Leaving inner SCF loop after reaching    50 steps.


  Electronic density on regular grids:      -1483.9999999839        0.0000000161
  Core density on regular grids:             1483.9999999310       -0.0000000690
  Total charge density on r-space grids:       -0.0000000529
  Total charge density g-space grids:          -0.0000000529

  Overlap energy of the core charge distribution:               0.00082074643465
  Self energy of the core charge distribution:             -10331.29031661960289
  Core Hamiltonian energy:                                   2686.35962904822964
  Hartree energy:                                            3973.55212744714891
  Exchange-correlation energy:                               -788.24210858653214
  Dispersion energy:                                           -0.70492062093201

  Total energy:                                             -4460.32476858525479

  outer SCF iter =    6 RMS gradient =   0.21E-04 energy =      -4460.3247685853

  ----------------------------------- OT ---------------------------------------
  Minimizer      : DIIS                : direct inversion
                                         in the iterative subspace
                                         using   7 DIIS vectors
                                         safer DIIS on
  Preconditioner : FULL_SINGLE         : diagonalization based
  Precond_solver : DEFAULT
  stepsize       :    0.15000000                  energy_gap     :    0.20000000
  eps_taylor     :   0.10000E-15                  max_taylor     :             4
  ----------------------------------- OT ---------------------------------------

  Step     Update method      Time    Convergence         Total energy    Change
  ------------------------------------------------------------------------------
     1 OT DIIS     0.15E+00    8.7     0.00002412     -4460.3249307507 -1.62E-04
     2 OT DIIS     0.15E+00    1.9     0.00006074     -4460.3249977986 -6.70E-05
     3 OT DIIS     0.15E+00    1.9     0.00002139     -4460.3251302380 -1.32E-04
     4 OT SD       0.15E+00    1.9     0.00002112     -4460.3251637191 -3.35E-05
     5 OT SD       0.15E+00    2.0     0.00002137     -4460.3253319640 -1.68E-04
     6 OT SD       0.15E+00    2.2     0.00002342     -4460.3254997348 -1.68E-04
     7 OT SD       0.15E+00    2.0     0.00004810     -4460.3256163321 -1.17E-04
     8 OT DIIS     0.15E+00    2.0     0.00020694     -4460.3244908882  1.13E-03
     9 OT DIIS     0.15E+00    1.9     0.00002095     -4460.3250073799 -5.16E-04
    10 OT DIIS     0.15E+00    2.0     0.00002198     -4460.3253501139 -3.43E-04
    11 OT SD       0.15E+00    2.0     0.00002271     -4460.3254598761 -1.10E-04
    12 OT DIIS     0.15E+00    2.1     0.00004628     -4460.3255644675 -1.05E-04
    13 OT DIIS     0.15E+00    2.1     0.00002097     -4460.3255478661  1.66E-05
    14 OT DIIS     0.15E+00    2.1     0.00002075     -4460.3256615071 -1.14E-04
    15 OT SD       0.15E+00    2.0     0.00002072     -4460.3257047593 -4.33E-05
    16 OT SD       0.15E+00    2.1     0.00002124     -4460.3258656393 -1.61E-04
    17 OT SD       0.15E+00    2.1     0.00003022     -4460.3260131667 -1.48E-04
    18 OT DIIS     0.15E+00    2.0     0.00011016     -4460.3258224411  1.91E-04
    19 OT SD       0.15E+00    2.0     0.00002067     -4460.3255765472  2.46E-04
    20 OT SD       0.15E+00    1.9     0.00002209     -4460.3257346674 -1.58E-04
    21 OT SD       0.15E+00    1.8     0.00004261     -4460.3258519152 -1.17E-04
    22 OT DIIS     0.15E+00    2.1     0.00017915     -4460.3250274054  8.25E-04
    23 OT DIIS     0.15E+00    2.1     0.00002048     -4460.3254512031 -4.24E-04
    24 OT DIIS     0.15E+00    2.1     0.00002187     -4460.3256472937 -1.96E-04
    25 OT DIIS     0.15E+00    1.9     0.00002053     -4460.3256724043 -2.51E-05
    26 OT SD       0.15E+00    2.1     0.00002082     -4460.3256993163 -2.69E-05
    27 OT SD       0.15E+00    1.9     0.00002767     -4460.3258465111 -1.47E-04
    28 OT DIIS     0.15E+00    2.1     0.00009121     -4460.3257678190  7.87E-05
    29 OT SD       0.15E+00    2.0     0.00002066     -4460.3256161878  1.52E-04
    30 OT SD       0.15E+00    2.1     0.00002611     -4460.3257630619 -1.47E-04
    31 OT DIIS     0.15E+00    1.9     0.00007695     -4460.3257449751  1.81E-05
    32 OT SD       0.15E+00    2.0     0.00002075     -4460.3256871445  5.78E-05
    33 OT SD       0.15E+00    1.9     0.00002727     -4460.3258319002 -1.45E-04
    34 OT DIIS     0.15E+00    2.2     0.00008321     -4460.3257787816  5.31E-05
    35 OT DIIS     0.15E+00    2.1     0.00002069     -4460.3257526370  2.61E-05
    36 OT SD       0.15E+00    1.9     0.00002095     -4460.3258289417 -7.63E-05
    37 OT SD       0.15E+00    2.1     0.00003124     -4460.3259679924 -1.39E-04
    38 OT DIIS     0.15E+00    1.8     0.00011791     -4460.3257184018  2.50E-04
    39 OT DIIS     0.15E+00    2.0     0.00002056     -4460.3256333003  8.51E-05
    40 OT SD       0.15E+00    2.0     0.00002094     -4460.3258621596 -2.29E-04
    41 OT SD       0.15E+00    1.9     0.00003053     -4460.3260028390 -1.41E-04
    42 OT DIIS     0.15E+00    1.9     0.00011377     -4460.3257844018  2.18E-04
    43 OT SD       0.15E+00    2.0     0.00002096     -4460.3258059945 -2.16E-05
    44 OT SD       0.15E+00    2.1     0.00002977     -4460.3259465491 -1.41E-04
    45 OT DIIS     0.15E+00    2.1     0.00009865     -4460.3258035515  1.43E-04
    46 OT SD       0.15E+00    2.1     0.00002053     -4460.3256804341  1.23E-04
    47 OT SD       0.15E+00    2.2     0.00002408     -4460.3258297240 -1.49E-04
    48 OT SD       0.15E+00    1.7     0.00005879     -4460.3258867065 -5.70E-05
    49 OT DIIS     0.15E+00    2.1     0.00025447     -4460.3240205280  1.87E-03
    50 OT SD       0.15E+00    2.0     0.00002029     -4460.3254671786 -1.45E-03

  Leaving inner SCF loop after reaching    50 steps.


  Electronic density on regular grids:      -1483.9999999836        0.0000000164
  Core density on regular grids:             1483.9999999310       -0.0000000690
  Total charge density on r-space grids:       -0.0000000526
  Total charge density g-space grids:          -0.0000000526

  Overlap energy of the core charge distribution:               0.00082074643465
  Self energy of the core charge distribution:             -10331.29031661960289
  Core Hamiltonian energy:                                   2686.39580301647220
  Hartree energy:                                            3973.52286015032314
  Exchange-correlation energy:                               -788.24971385134472
  Dispersion energy:                                           -0.70492062093201

  Total energy:                                             -4460.32546717864989

  outer SCF iter =    7 RMS gradient =   0.20E-04 energy =      -4460.3254671786

  ----------------------------------- OT ---------------------------------------
  Minimizer      : DIIS                : direct inversion
                                         in the iterative subspace
                                         using   7 DIIS vectors
                                         safer DIIS on
  Preconditioner : FULL_SINGLE         : diagonalization based
  Precond_solver : DEFAULT
  stepsize       :    0.15000000                  energy_gap     :    0.20000000
  eps_taylor     :   0.10000E-15                  max_taylor     :             4
  ----------------------------------- OT ---------------------------------------

  Step     Update method      Time    Convergence         Total energy    Change
  ------------------------------------------------------------------------------
     1 OT DIIS     0.15E+00    8.8     0.00002219     -4460.3256163801 -1.49E-04
     2 OT DIIS     0.15E+00    2.0     0.00004391     -4460.3257201125 -1.04E-04
     3 OT DIIS     0.15E+00    2.1     0.00002133     -4460.3258000466 -7.99E-05
     4 OT SD       0.15E+00    2.1     0.00002029     -4460.3258380961 -3.80E-05
     5 OT SD       0.15E+00    1.9     0.00002082     -4460.3259923711 -1.54E-04
     6 OT SD       0.15E+00    2.2     0.00002695     -4460.3261387073 -1.46E-04
     7 OT SD       0.15E+00    1.8     0.00007821     -4460.3261101334  2.86E-05
     8 OT DIIS     0.15E+00    2.0     0.00034039     -4460.3225601247  3.55E-03
     9 OT DIIS     0.15E+00    2.0     0.00002001     -4460.3255512618 -2.99E-03
    10 OT DIIS     0.15E+00    2.1     0.00002112     -4460.3256575880 -1.06E-04
    11 OT SD       0.15E+00    1.9     0.00002201     -4460.3260378354 -3.80E-04
    12 OT SD       0.15E+00    2.0     0.00003725     -4460.3261530593 -1.15E-04
    13 OT DIIS     0.15E+00    2.1     0.00013026     -4460.3257568210  3.96E-04
    14 OT DIIS     0.15E+00    2.0     0.00002004     -4460.3258765842 -1.20E-04
    15 OT DIIS     0.15E+00    2.0     0.00002028     -4460.3259079933 -3.14E-05
    16 OT DIIS     0.15E+00    2.1     0.00002175     -4460.3259558433 -4.78E-05
    17 OT SD       0.15E+00    2.1     0.00002025     -4460.3260905510 -1.35E-04
    18 OT SD       0.15E+00    2.1     0.00002325     -4460.3262384295 -1.48E-04
    19 OT SD       0.15E+00    2.0     0.00005519     -4460.3263063865 -6.80E-05
    20 OT DIIS     0.15E+00    2.1     0.00023446     -4460.3247115518  1.59E-03
    21 OT SD       0.15E+00    2.1     0.00002009     -4460.3257843929 -1.07E-03
    22 OT SD       0.15E+00    1.9     0.00002470     -4460.3259249571 -1.41E-04
    23 OT DIIS     0.15E+00    2.0     0.00007087     -4460.3259274649 -2.51E-06
    24 OT SD       0.15E+00    2.1     0.00002054     -4460.3261213009 -1.94E-04
    25 OT SD       0.15E+00    2.2     0.00003059     -4460.3262530051 -1.32E-04
    26 OT DIIS     0.15E+00    1.9     0.00011253     -4460.3260268037  2.26E-04
    27 OT SD       0.15E+00    2.1     0.00001990     -4460.3260595993 -3.28E-05
    28 OT DIIS     0.15E+00    2.0     0.00002112     -4460.3262058691 -1.46E-04
    29 OT SD       0.15E+00    2.0     0.00002057     -4460.3262916000 -8.57E-05
    30 OT SD       0.15E+00    2.0     0.00002885     -4460.3264273224 -1.36E-04
    31 OT SD       0.15E+00    1.8     0.00009412     -4460.3263051492  1.22E-04
    32 OT DIIS     0.15E+00    2.0     0.00042471     -4460.3207565590  5.55E-03
    33 OT SD       0.15E+00    2.0     0.00002035     -4460.3256838692 -4.93E-03
    34 OT SD       0.15E+00    2.2     0.00003049     -4460.3258086209 -1.25E-04
    35 OT SD       0.15E+00    2.0     0.00010873     -4460.3255928974  2.16E-04
    36 OT DIIS     0.15E+00    2.2     0.00051152     -4460.3176361854  7.96E-03
    37 OT DIIS     0.15E+00    1.9     0.00001960     -4460.3253195959 -7.68E-03
    38 OT SD       0.15E+00    2.0     0.00002254     -4460.3257941499 -4.75E-04
    39 OT SD       0.15E+00    2.1     0.00005165     -4460.3258516324 -5.75E-05
    40 OT DIIS     0.15E+00    1.8     0.00020988     -4460.3245634860  1.29E-03
    41 OT SD       0.15E+00    2.0     0.00002282     -4460.3257655805 -1.20E-03
    42 OT DIIS     0.15E+00    2.1     0.00006791     -4460.3257510471  1.45E-05
    43 OT DIIS     0.15E+00    2.0     0.00001943     -4460.3259040031 -1.53E-04
    44 OT SD       0.15E+00    2.0     0.00001845     -4460.3259624721 -5.85E-05
    45 OT SD       0.15E+00    2.1     0.00002348     -4460.3260822663 -1.20E-04
    46 OT SD       0.15E+00    1.9     0.00006867     -4460.3260838231 -1.56E-06
    47 OT DIIS     0.15E+00    2.0     0.00031865     -4460.3231273524  2.96E-03
    48 OT SD       0.15E+00    2.0     0.00001803     -4460.3256863148 -2.56E-03
    49 OT SD       0.15E+00    2.0     0.00003024     -4460.3257723188 -8.60E-05
    50 OT DIIS     0.15E+00    2.0     0.00011293     -4460.3254802138  2.92E-04

  Leaving inner SCF loop after reaching    50 steps.


  Electronic density on regular grids:      -1483.9999999837        0.0000000163
  Core density on regular grids:             1483.9999999310       -0.0000000690
  Total charge density on r-space grids:       -0.0000000527
  Total charge density g-space grids:          -0.0000000527

  Overlap energy of the core charge distribution:               0.00082074643465
  Self energy of the core charge distribution:             -10331.29031661960289
  Core Hamiltonian energy:                                   2686.44603466250373
  Hartree energy:                                            3973.47810671884054
  Exchange-correlation energy:                               -788.25520510100193
  Dispersion energy:                                           -0.70492062093201

  Total energy:                                             -4460.32548021375806

  outer SCF iter =    8 RMS gradient =   0.11E-03 energy =      -4460.3254802138

  ----------------------------------- OT ---------------------------------------
  Minimizer      : DIIS                : direct inversion
                                         in the iterative subspace
                                         using   7 DIIS vectors
                                         safer DIIS on
  Preconditioner : FULL_SINGLE         : diagonalization based
  Precond_solver : DEFAULT
  stepsize       :    0.15000000                  energy_gap     :    0.20000000
  eps_taylor     :   0.10000E-15                  max_taylor     :             4
  ----------------------------------- OT ---------------------------------------

  Step     Update method      Time    Convergence         Total energy    Change
  ------------------------------------------------------------------------------
     1 OT DIIS     0.15E+00    8.9     0.00001709     -4460.3258280726 -3.48E-04
     2 OT DIIS     0.15E+00    1.8     0.00002085     -4460.3259306303 -1.03E-04
     3 OT DIIS     0.15E+00    1.9     0.00001701     -4460.3259550080 -2.44E-05
     4 OT SD       0.15E+00    1.9     0.00001695     -4460.3259666625 -1.17E-05
     5 OT SD       0.15E+00    2.0     0.00001729     -4460.3260745569 -1.08E-04
     6 OT SD       0.15E+00    2.1     0.00002228     -4460.3261772185 -1.03E-04
     7 OT SD       0.15E+00    1.8     0.00007191     -4460.3261399675  3.73E-05
     8 OT DIIS     0.15E+00    2.1     0.00035264     -4460.3225542419  3.59E-03
     9 OT SD       0.15E+00    2.0     0.00001707     -4460.3255197941 -2.97E-03
    10 OT SD       0.15E+00    1.9     0.00002149     -4460.3256170181 -9.72E-05
    11 OT SD       0.15E+00    1.8     0.00005879     -4460.3256155322  1.49E-06
    12 OT DIIS     0.15E+00    2.0     0.00025424     -4460.3236570999  1.96E-03
    13 OT DIIS     0.15E+00    2.1     0.00001657     -4460.3253925260 -1.74E-03
    14 OT SD       0.15E+00    2.1     0.00001689     -4460.3255153164 -1.23E-04
    15 OT SD       0.15E+00    2.1     0.00002224     -4460.3256114480 -9.61E-05
    16 OT SD       0.15E+00    2.1     0.00006740     -4460.3255782582  3.32E-05
    17 OT DIIS     0.15E+00    2.1     0.00029703     -4460.3228595067  2.72E-03
    18 OT DIIS     0.15E+00    2.1     0.00001651     -4460.3252950678 -2.44E-03
    19 OT SD       0.15E+00    2.0     0.00001676     -4460.3253260469 -3.10E-05
    20 OT SD       0.15E+00    2.0     0.00002464     -4460.3254135286 -8.75E-05
    21 OT DIIS     0.15E+00    2.1     0.00008784     -4460.3252789575  1.35E-04
    22 OT DIIS     0.15E+00    2.1     0.00001622     -4460.3253898468 -1.11E-04
    23 OT DIIS     0.15E+00    2.0     0.00001648     -4460.3256052193 -2.15E-04
    24 OT DIIS     0.15E+00    2.1     0.00001619     -4460.3256572790 -5.21E-05
    25 OT SD       0.15E+00    2.0     0.00001615     -4460.3256738462 -1.66E-05
    26 OT SD       0.15E+00    2.2     0.00001775     -4460.3257696627 -9.58E-05
    27 OT SD       0.15E+00    2.1     0.00003898     -4460.3258291872 -5.95E-05
    28 OT DIIS     0.15E+00    2.0     0.00017243     -4460.3250214677  8.08E-04
    29 OT SD       0.15E+00    2.1     0.00001632     -4460.3254888564 -4.67E-04
    30 OT SD       0.15E+00    2.0     0.00002191     -4460.3255753340 -8.65E-05
    31 OT DIIS     0.15E+00    2.1     0.00006664     -4460.3255318787  4.35E-05
    32 OT SD       0.15E+00    1.9     0.00001668     -4460.3255219296  9.95E-06
    33 OT DIIS     0.15E+00    2.0     0.00003101     -4460.3255892043 -6.73E-05
    34 OT DIIS     0.15E+00    1.8     0.00001592     -4460.3256251434 -3.59E-05
    35 OT SD       0.15E+00    2.0     0.00001563     -4460.3256293220 -4.18E-06
    36 OT SD       0.15E+00    1.9     0.00001611     -4460.3257213493 -9.20E-05
    37 OT SD       0.15E+00    2.2     0.00002019     -4460.3258117665 -9.04E-05
    38 OT SD       0.15E+00    2.0     0.00005632     -4460.3258185126 -6.75E-06
    39 OT DIIS     0.15E+00    2.1     0.00025102     -4460.3239508807  1.87E-03
    40 OT DIIS     0.15E+00    2.0     0.00001524     -4460.3254238265 -1.47E-03
    41 OT DIIS     0.15E+00    1.9     0.00001553     -4460.3254445643 -2.07E-05
    42 OT DIIS     0.15E+00    2.1     0.00001564     -4460.3254865830 -4.20E-05
[...]
    26 OT DIIS     0.15E+00    4.8     0.00001015     -4463.4993429186 -6.25E-05
    27 OT DIIS     0.15E+00    6.1     0.00001029     -4463.4993521348 -9.22E-06
    28 OT DIIS     0.15E+00    3.1     0.00000903     -4463.4994238691 -7.17E-05

  *** SCF run converged in    28 steps ***


  Electronic density on regular grids:      -1483.9999996939        0.0000003061
  Core density on regular grids:             1483.9999999307       -0.0000000693
  Total charge density on r-space grids:        0.0000002368
  Total charge density g-space grids:           0.0000002368

  Overlap energy of the core charge distribution:               0.00000379785915
  Self energy of the core charge distribution:             -10331.29031661960289
  Core Hamiltonian energy:                                   2684.00246217716995
  Hartree energy:                                            3972.55333480976014
  Exchange-correlation energy:                               -788.07938420683240
  Dispersion energy:                                           -0.68552382743689

  Total energy:                                             -4463.49942386908333

  outer SCF iter =    1 RMS gradient =   0.90E-05 energy =      -4463.4994238691
  outer SCF loop converged in   1 iterations or   28 steps


 ENERGY| Total FORCE_EVAL ( QS ) energy [a.u.]:            -4463.499444412474986

 --------  Informations at step =   237 ------------
  Optimization Method        =                 BFGS
  Total Energy               =     -4463.4994444125
  Real energy change         =        -0.0016363349
  Predicted change in energy =        -0.0007432911
  Scaling factor             =         0.4645640379
  Step size                  =         0.0454465676
  Trust radius               =         0.4724315332
  Decrease in energy         =                  YES
  Used time                  =              149.753

  Convergence check :
  Max. step size             =         0.0454465676
  Conv. limit for step size  =         0.0030000000
  Convergence in step size   =                   NO
  RMS step size              =         0.0065414654
  Conv. limit for RMS step   =         0.0015000000
  Convergence in RMS step    =                   NO
  Max. gradient              =         0.0048859992
  Conv. limit for gradients  =         0.0004500000
  Conv. for gradients        =                   NO
  RMS gradient               =         0.0010749132
  Conv. limit for RMS grad.  =         0.0003000000
  Conv. for gradients        =                   NO
 ---------------------------------------------------

 --------------------------
 OPTIMIZATION STEP:    238
 --------------------------

 Number of electrons:                                                       1484
 Number of occupied orbitals:                                                742
 Number of molecular orbitals:                                               742

 Number of orbital functions:                                               3388
 Number of independent orbital functions:                                   3388

 Extrapolation method: ASPC


 SCF WAVEFUNCTION OPTIMIZATION

  ----------------------------------- OT ---------------------------------------
  Minimizer      : DIIS                : direct inversion
                                         in the iterative subspace
                                         using   7 DIIS vectors
                                         safer DIIS on
  Preconditioner : FULL_SINGLE         : diagonalization based
  Precond_solver : DEFAULT
  stepsize       :    0.15000000                  energy_gap     :    0.20000000
  eps_taylor     :   0.10000E-15                  max_taylor     :             4
  ----------------------------------- OT ---------------------------------------

  Step     Update method      Time    Convergence         Total energy    Change
  ------------------------------------------------------------------------------
     1 OT DIIS     0.15E+00   14.4     0.00048315     -4463.4809205624 -4.46E+03
     2 OT DIIS     0.15E+00    2.9     0.00187849     -4463.3807026187  1.00E-01
     3 OT DIIS     0.15E+00    2.5     0.00031570     -4463.4941051645 -1.13E-01
     4 OT DIIS     0.15E+00    5.3     0.00017495     -4463.4976112364 -3.51E-03
     5 OT DIIS     0.15E+00    4.3     0.00015879     -4463.4983175408 -7.06E-04
     6 OT DIIS     0.15E+00    5.9     0.00006448     -4463.4993066231 -9.89E-04
     7 OT DIIS     0.15E+00    3.7     0.00004462     -4463.4995520190 -2.45E-04
     8 OT DIIS     0.15E+00    4.0     0.00003588     -4463.4997046294 -1.53E-04
     9 OT DIIS     0.15E+00    3.9     0.00002566     -4463.4998351172 -1.30E-04
    10 OT DIIS     0.15E+00    5.5     0.00002657     -4463.4998787917 -4.37E-05
    11 OT DIIS     0.15E+00    6.1     0.00002574     -4463.4999375037 -5.87E-05
    12 OT DIIS     0.15E+00    5.0     0.00001846     -4463.5000020191 -6.45E-05
    13 OT DIIS     0.15E+00    3.3     0.00001764     -4463.5000342880 -3.23E-05
    14 OT SD       0.15E+00    4.5     0.00001643     -4463.5000324310  1.86E-06
    15 OT SD       0.15E+00    2.7     0.00002294     -4463.5001240254 -9.16E-05
    16 OT SD       0.15E+00    2.5     0.00006597     -4463.5001189686  5.06E-06
    17 OT DIIS     0.15E+00    4.6     0.00028905     -4463.4976565139  2.46E-03
    18 OT DIIS     0.15E+00    3.9     0.00001436     -4463.4999049614 -2.25E-03
    19 OT DIIS     0.15E+00    3.3     0.00001439     -4463.4999048344  1.27E-07
    20 OT DIIS     0.15E+00    5.1     0.00001464     -4463.4999477982 -4.30E-05
    21 OT SD       0.15E+00    5.8     0.00001595     -4463.5000418004 -9.40E-05
    22 OT DIIS     0.15E+00    2.6     0.00005095     -4463.4999869272  5.49E-05
    23 OT DIIS     0.15E+00    2.3     0.00001222     -4463.5001079460 -1.21E-04
    24 OT DIIS     0.15E+00    3.7     0.00000890     -4463.5001591494 -5.12E-05

  *** SCF run converged in    24 steps ***


  Electronic density on regular grids:      -1483.9999996920        0.0000003080
  Core density on regular grids:             1483.9999999307       -0.0000000693
  Total charge density on r-space grids:        0.0000002387
  Total charge density g-space grids:           0.0000002387

  Overlap energy of the core charge distribution:               0.00000380200709
  Self energy of the core charge distribution:             -10331.29031661960289
  Core Hamiltonian energy:                                   2683.99245499498920
  Hartree energy:                                            3972.56066443756208
  Exchange-correlation energy:                               -788.07744626492104
  Dispersion energy:                                           -0.68551949946939

  Total energy:                                             -4463.50015914943469

  outer SCF iter =    1 RMS gradient =   0.89E-05 energy =      -4463.5001591494
  outer SCF loop converged in   1 iterations or   24 steps


 ENERGY| Total FORCE_EVAL ( QS ) energy [a.u.]:            -4463.500181161393812

 --------  Informations at step =   238 ------------
  Optimization Method        =                 BFGS
  Total Energy               =     -4463.5001811614
  Real energy change         =        -0.0007367489
  Predicted change in energy =        -0.0008127177
  Scaling factor             =         0.4645640379
  Step size                  =         0.0426888714
  Trust radius               =         0.4724315332
  Decrease in energy         =                  YES
  Used time                  =              130.273

  Convergence check :
  Max. step size             =         0.0426888714
  Conv. limit for step size  =         0.0030000000
  Convergence in step size   =                   NO
  RMS step size              =         0.0046101301
  Conv. limit for RMS step   =         0.0015000000
  Convergence in RMS step    =                   NO
  Max. gradient              =         0.0041823065
  Conv. limit for gradients  =         0.0004500000
  Conv. for gradients        =                   NO
  RMS gradient               =         0.0007015629
  Conv. limit for RMS grad.  =         0.0003000000
  Conv. for gradients        =                   NO
 ---------------------------------------------------

 --------------------------
 OPTIMIZATION STEP:    239
 --------------------------

 Number of electrons:                                                       1484
 Number of occupied orbitals:                                                742
 Number of molecular orbitals:                                               742

 Number of orbital functions:                                               3388
 Number of independent orbital functions:                                   3388

 Extrapolation method: ASPC


 SCF WAVEFUNCTION OPTIMIZATION

  ----------------------------------- OT ---------------------------------------
  Minimizer      : DIIS                : direct inversion
                                         in the iterative subspace
                                         using   7 DIIS vectors
                                         safer DIIS on
  Preconditioner : FULL_SINGLE         : diagonalization based
  Precond_solver : DEFAULT
  stepsize       :    0.15000000                  energy_gap     :    0.20000000
  eps_taylor     :   0.10000E-15                  max_taylor     :             4
  ----------------------------------- OT ---------------------------------------

  Step     Update method      Time    Convergence         Total energy    Change
  ------------------------------------------------------------------------------
     1 OT DIIS     0.15E+00   13.6     0.00042178     -4463.4811184698 -4.46E+03
     2 OT DIIS     0.15E+00    5.7     0.00156932     -4463.4107651727  7.04E-02
     3 OT DIIS     0.15E+00    4.7     0.00028986     -4463.4915282071 -8.08E-02
     4 OT DIIS     0.15E+00    5.1     0.00014954     -4463.4946641145 -3.14E-03
     5 OT DIIS     0.15E+00    6.0     0.00013962     -4463.4952675172 -6.03E-04
     6 OT DIIS     0.15E+00    3.6     0.00006222     -4463.4960797085 -8.12E-04
     7 OT DIIS     0.15E+00    5.9     0.00004420     -4463.4963594513 -2.80E-04
     8 OT DIIS     0.15E+00    3.8     0.00003735     -4463.4965518847 -1.92E-04
     9 OT DIIS     0.15E+00    5.7     0.00002803     -4463.4967389230 -1.87E-04
    10 OT DIIS     0.15E+00    3.0     0.00002809     -4463.4968217076 -8.28E-05
    11 OT DIIS     0.15E+00    6.3     0.00003036     -4463.4968961454 -7.44E-05
    12 OT DIIS     0.15E+00    3.5     0.00002147     -4463.4969977282 -1.02E-04
    13 OT DIIS     0.15E+00    3.4     0.00002075     -4463.4970487628 -5.10E-05
    14 OT SD       0.15E+00    6.1     0.00001961     -4463.4970504239 -1.66E-06
    15 OT SD       0.15E+00    3.5     0.00002846     -4463.4971771962 -1.27E-04
    16 OT DIIS     0.15E+00    3.9     0.00008973     -4463.4971070234  7.02E-05
    17 OT SD       0.15E+00    5.6     0.00002110     -4463.4969685407  1.38E-04
    18 OT SD       0.15E+00    4.1     0.00004526     -4463.4970249513 -5.64E-05
    19 OT DIIS     0.15E+00    7.2     0.00017118     -4463.4961916157  8.33E-04
    20 OT DIIS     0.15E+00    5.4     0.00001656     -4463.4969296526 -7.38E-04
    21 OT DIIS     0.15E+00    5.6     0.00001700     -4463.4969857158 -5.61E-05
    22 OT SD       0.15E+00    2.7     0.00002415     -4463.4970980271 -1.12E-04
    23 OT DIIS     0.15E+00    3.8     0.00009369     -4463.4968764726  2.22E-04
    24 OT DIIS     0.15E+00    5.3     0.00001344     -4463.4971887456 -3.12E-04
    25 OT DIIS     0.15E+00    3.7     0.00001582     -4463.4972738587 -8.51E-05
    26 OT DIIS     0.15E+00    4.8     0.00001057     -4463.4973753171 -1.01E-04
    27 OT DIIS     0.15E+00    6.2     0.00000934     -4463.4974066904 -3.14E-05

  *** SCF run converged in    27 steps ***


  Electronic density on regular grids:      -1483.9999997202        0.0000002798
  Core density on regular grids:             1483.9999999307       -0.0000000693
  Total charge density on r-space grids:        0.0000002105
  Total charge density g-space grids:           0.0000002105

  Overlap energy of the core charge distribution:               0.00000380457416
  Self energy of the core charge distribution:             -10331.29031661960289
  Core Hamiltonian energy:                                   2683.97813717450936
  Hartree energy:                                            3972.57401482749174
  Exchange-correlation energy:                               -788.07371687116915
  Dispersion energy:                                           -0.68552900619773

  Total energy:                                             -4463.49740669039420

  outer SCF iter =    1 RMS gradient =   0.93E-05 energy =      -4463.4974066904
  outer SCF loop converged in   1 iterations or   27 steps


 ENERGY| Total FORCE_EVAL ( QS ) energy [a.u.]:            -4463.497452788073133

 --------  Informations at step =   239 ------------
  Optimization Method        =                 BFGS
  Total Energy               =     -4463.4974527881
  Real energy change         =         0.0027283733
  Predicted change in energy =        -0.0008231171
  Scaling factor             =         0.4645640379
  Step size                  =         0.0454338843
  Trust radius               =         0.4724315332
  Decrease in energy         =                   NO
  Used time                  =              155.949

  Convergence check :
  Max. step size             =         0.0454338843
  Conv. limit for step size  =         0.0030000000
  Convergence in step size   =                   NO
  RMS step size              =         0.0072295413
  Conv. limit for RMS step   =         0.0015000000
  Convergence in RMS step    =                   NO
  Max. gradient              =         0.0074070108
  Conv. limit for gradients  =         0.0004500000
  Conv. for gradients        =                   NO
  RMS gradient               =         0.0012215633
  Conv. limit for RMS grad.  =         0.0003000000
  Conv. for gradients        =                   NO
 ---------------------------------------------------

 --------------------------
 OPTIMIZATION STEP:    240
 --------------------------

 Number of electrons:                                                       1484
 Number of occupied orbitals:                                                742
 Number of molecular orbitals:                                               742

 Number of orbital functions:                                               3388
 Number of independent orbital functions:                                   3388

 Extrapolation method: ASPC


 SCF WAVEFUNCTION OPTIMIZATION

  ----------------------------------- OT ---------------------------------------
  Minimizer      : DIIS                : direct inversion
                                         in the iterative subspace
                                         using   7 DIIS vectors
                                         safer DIIS on
  Preconditioner : FULL_SINGLE         : diagonalization based
  Precond_solver : DEFAULT
  stepsize       :    0.15000000                  energy_gap     :    0.20000000
  eps_taylor     :   0.10000E-15                  max_taylor     :             4
  ----------------------------------- OT ---------------------------------------

  Step     Update method      Time    Convergence         Total energy    Change
  ------------------------------------------------------------------------------
     1 OT DIIS     0.15E+00   18.6     0.00051683     -4463.4741391130 -4.46E+03
     2 OT DIIS     0.15E+00    4.7     0.00183407     -4463.3774781868  9.67E-02
     3 OT DIIS     0.15E+00    2.9     0.00034349     -4463.4917440808 -1.14E-01
     4 OT DIIS     0.15E+00    2.9     0.00020931     -4463.4956375362 -3.89E-03
     5 OT DIIS     0.15E+00    8.0     0.00018759     -4463.4966344342 -9.97E-04
     6 OT DIIS     0.15E+00    3.8     0.00007000     -4463.4979724609 -1.34E-03
     7 OT DIIS     0.15E+00    4.9     0.00005091     -4463.4982507162 -2.78E-04
     8 OT DIIS     0.15E+00    4.5     0.00004174     -4463.4984202772 -1.70E-04
     9 OT DIIS     0.15E+00    4.4     0.00002684     -4463.4985615779 -1.41E-04
    10 OT DIIS     0.15E+00    4.4     0.00002616     -4463.4986164395 -5.49E-05
    11 OT DIIS     0.15E+00    4.1     0.00003041     -4463.4986568615 -4.04E-05
    12 OT DIIS     0.15E+00    6.3     0.00001857     -4463.4987282225 -7.14E-05
    13 OT DIIS     0.15E+00    6.0     0.00001809     -4463.4987673721 -3.91E-05
    14 OT DIIS     0.15E+00    4.1     0.00001718     -4463.4987953019 -2.79E-05
    15 OT DIIS     0.15E+00    3.5     0.00001464     -4463.4988443907 -4.91E-05
    16 OT DIIS     0.15E+00    4.4     0.00001435     -4463.4988775192 -3.31E-05
    17 OT DIIS     0.15E+00    3.1     0.00001336     -4463.4988993813 -2.19E-05
    18 OT DIIS     0.15E+00    4.2     0.00001326     -4463.4989356737 -3.63E-05
    19 OT DIIS     0.15E+00    4.9     0.00001342     -4463.4989895958 -5.39E-05
    20 OT DIIS     0.15E+00    3.6     0.00001290     -4463.4989932423 -3.65E-06
    21 OT DIIS     0.15E+00    3.9     0.00001262     -4463.4990189331 -2.57E-05
    22 OT DIIS     0.15E+00    2.6     0.00001249     -4463.4990618939 -4.30E-05
    23 OT DIIS     0.15E+00    6.1     0.00001226     -4463.4990733917 -1.15E-05
    24 OT SD       0.15E+00    6.1     0.00001219     -4463.4990873300 -1.39E-05
    25 OT SD       0.15E+00    6.5     0.00001256     -4463.4991432701 -5.59E-05
    26 OT SD       0.15E+00    2.8     0.00001631     -4463.4991973832 -5.41E-05
    27 OT SD       0.15E+00    3.7     0.00004749     -4463.4991895527  7.83E-06
    28 OT DIIS     0.15E+00    2.5     0.00020509     -4463.4978937589  1.30E-03
    29 OT DIIS     0.15E+00    3.9     0.00001220     -4463.4990718994 -1.18E-03
    30 OT DIIS     0.15E+00    5.8     0.00001283     -4463.4992084878 -1.37E-04
    31 OT DIIS     0.15E+00    3.2     0.00001278     -4463.4994310252 -2.23E-04
    32 OT DIIS     0.15E+00    6.7     0.00001316     -4463.4994262538  4.77E-06
    33 OT DIIS     0.15E+00    5.3     0.00001332     -4463.4995782816 -1.52E-04
    34 OT DIIS     0.15E+00    3.3     0.00001124     -4463.4997421508 -1.64E-04
    35 OT DIIS     0.15E+00    2.5     0.00001181     -4463.4998122050 -7.01E-05
    36 OT DIIS     0.15E+00    3.6     0.00002151     -4463.4998131480 -9.43E-07
    37 OT DIIS     0.15E+00    4.0     0.00001183     -4463.5000072863 -1.94E-04
[1695817878.078532] [ibc11b07n38:13420:0]        mm_xpmem.c:135  UCX  ERROR   failed to attach xpmem apid 0x160000346c offset 0x1e3dd000 length 16384: Cannot allocate memory
[1695817878.078765] [ibc11b07n38:13420:0]        ucp_rkey.c:449  UCX  ERROR   failed to unpack remote key from remote md[7]: Input/output error
[1695817878.086497] [ibc11b07n38:13420:0]         pgtable.c:643  UCX  WARN    failed to remove pgtable region0x1da17720 [0x2b8f3c6bd818..0x2b8f3c6bd818]
[1695817879.153344] [ibc11b07n38:13420:0]          rcache.c:674  UCX  WARN    xpmem_remote_mem: destroying inuse region 0x1da17720 [0x2b8f3c6bd818..0x2b8f3c6bd818] g- rw ref 4294967295 apid 0x1d0000346c attach_addr (nil) rmem 0x8d3c570
[1695817879.155159] [ibc11b07n38:13420:0]          rcache.c:674  UCX  WARN    xpmem_remote_mem: destroying inuse region 0x8ee0610 [0x2add1b642000..0x2add1b645000] g- rw ref 1 apid 0x1d0000346c attach_addr 0x2b8f4eddf000 rmem 0x8d3c570
[1695817879.157115] [ibc11b07n38:13420:0]           mpool.c:54   UCX  WARN    object 0x2b8f4edbbe88 was not returned to mpool rcache_mp
[1695817879.157253] [ibc11b07n38:13420:0]           mpool.c:54   UCX  WARN    object 0x2b8f4edbc278 was not returned to mpool rcache_mp
[1695817879.157388] [ibc11b07n38:13420:0]           mpool.c:54   UCX  WARN    object 0x2b8f4edc31d8 was not returned to mpool rcache_mp
[1695817879.159240] [ibc11b07n38:13420:0]         pgtable.c:682  UCX  WARN    page table not empty during cleanup
