     196
 i =        1, E =     -4460.3258099420
  U       -22.1258201509      -25.8149331854      -38.8146503349
  U       -26.2711396537      -25.6058583848      -38.7888152770
  U       -21.0671423291      -29.1736683253      -29.3612485380
  U       -24.5621356205      -31.2607014931      -42.2593628394
  U       -24.1167330514      -35.2282999430      -40.9743565079
  U       -27.1068375303      -36.9588067177      -31.7411133564
  U       -25.1768149505      -38.4055466955      -35.2026953969
  U       -17.9058825033      -29.8516245501      -35.2029475632
  U       -27.7953073375      -28.9924476766      -40.9716898158
  U       -22.1260090235      -25.8159601578      -31.5920372362
  U       -26.2705483609      -25.6067129837      -31.6183180519
  U       -27.1075381246      -36.9587015080      -38.6667574767
  U       -24.5619825678      -31.2605555378      -28.1487022298
  U       -30.3686599749      -34.6964642817      -33.0158285108
  U       -18.6250545865      -31.7359218576      -38.8108808336
  U       -28.2867449758      -25.4130757506      -35.2033379939
  U       -30.7666376747      -30.7581659861      -38.6654489481
  U       -27.7952630378      -28.9924046835      -29.4354295164
  U       -30.3680728803      -34.6962316609      -37.3922643289
  U       -21.1395946310      -37.3228951008      -35.2037886240
  U       -20.4156653826      -35.4822133553      -31.6196221618
  U       -21.0663528482      -29.1739472137      -41.0469225519
  U       -20.0776734651      -26.1069354450      -35.2032375396
  U       -31.1698671685      -28.3886707016      -35.2037011699
  U       -18.6255611039      -31.7361531941      -31.5962967889
  U       -30.7673712571      -30.7578056271      -31.7416503691
  U       -20.4152615975      -35.4828876025      -38.7878599334
  U       -24.1165499101      -35.2281497838      -29.4324340068
  O       -18.4033874582      -27.6736784792      -34.3942884627
  O       -21.5311419465      -24.3811392668      -39.7339898933
  O       -28.5504795041      -28.2961792580      -42.4262336245
  O       -30.2025351052      -26.4019763604      -34.3743043805
  O       -20.1280043143      -31.6403373426      -32.4761122167
  O       -26.9702893904      -38.2822700707      -33.6993277578
  O       -29.1576520628      -35.8067331281      -31.3044574610
  O       -31.2017006960      -34.3139658934      -35.2054764028
  O       -24.1978141864      -25.6321496925      -39.8335980377
  O       -31.8881601631      -30.0263438577      -36.6762429801
  O       -18.4034116006      -27.6737715383      -36.0135343890
  O       -28.5500571524      -28.2970819208      -27.9797059310
  O       -21.5310550311      -24.3809054495      -30.6748968713
  O       -30.2027064333      -26.4022339972      -36.0337092252
  O       -29.1576906744      -35.8059807913      -39.1011320710
  O       -25.2341284917      -40.1370408406      -35.2038287431
  O       -31.9043395319      -35.5886425072      -32.5492632571
  O       -22.7560853532      -27.2618068760      -37.9223692827
  O       -31.3678784637      -28.8307130145      -37.4932910953
  O       -24.1978936447      -25.6322020582      -30.5730528002
  O       -31.8882471715      -30.0269556280      -33.7312875089
  O       -31.9046606604      -35.5881865035      -37.8575620459
  O       -29.1862068159      -36.6937035272      -32.6763941576
  O       -25.1190453370      -36.5665903684      -35.2045525716
  O       -19.6213770558      -36.4499386321      -33.6268795213
  O       -17.7825157801      -30.0650840488      -37.4578044604
  O       -21.4905012096      -34.4032094232      -32.5825905291
  O       -24.1732817906      -24.7147705435      -38.3220546865
  O       -27.3771027008      -26.9331178284      -35.2053039461
  O       -20.1604064854      -28.6316494317      -42.5266087720
  O       -22.7560114321      -27.2616594361      -32.4866936087
  O       -31.3673687366      -28.8304488129      -32.9159129859
  O       -29.1861273780      -36.6935087296      -37.7294007524
  O       -19.6208843833      -36.4497875321      -36.7823730244
  O       -21.4909669884      -34.4029654857      -37.8271402188
  O       -19.0187640486      -29.7690007210      -39.9887075837
  O       -17.0558496551      -31.9084297740      -39.7429497581
  O       -18.6078635344      -34.0634340440      -38.1589834095
  O       -17.7826359922      -30.0654426092      -32.9472554471
  O       -20.1600114695      -28.6317162672      -27.8824097064
  O       -24.1734731490      -24.7145579528      -32.0847498856
  O       -25.2894477173      -37.0018110110      -30.4288270623
  O       -19.3734542015      -36.5486115810      -30.6561373350
  O       -24.2991719380      -34.1852882147      -30.8558059080
  O       -26.5786805097      -26.9582610659      -40.6773458942
  O       -25.9055586073      -29.3667983467      -42.2401738268
  O       -19.0193645654      -29.7692187023      -30.4206561891
  O       -18.6080340556      -34.0637247356      -32.2475898249
  O       -17.0556799238      -31.9083481556      -30.6655932216
  O       -25.2900358159      -37.0015529454      -39.9797740417
  O       -24.2995588414      -34.1846534321      -39.5519573472
  O       -19.3734549914      -36.5483582820      -39.7529119327
  O       -20.1648808871      -38.8324736961      -35.2051996955
  O       -16.1589642688      -29.4843690969      -35.2047056412
  O       -28.1356383581      -25.2597274572      -37.4528478879
  O       -25.8190233182      -27.0304638623      -37.8410511281
  O       -19.6228102111      -30.2991600039      -35.2051215113
  O       -26.5794523709      -26.9582904650      -29.7277758700
  O       -25.9054341860      -29.3666712447      -28.1627146724
  O       -24.5154163240      -31.2500686228      -40.4573821990
  O       -23.5463886611      -33.3598691255      -28.1559604393
  O       -21.7841132872      -35.1658018749      -29.7312473464
  O       -21.4127348934      -24.8688637058      -36.7504008919
  O       -19.6472735096      -30.9930219430      -40.8207048189
  O       -28.1355989111      -25.2597817566      -32.9535494249
  O       -25.8188718576      -27.0304672752      -32.5677195974
  O       -23.5463906947      -33.3602541399      -42.2477642683
  O       -21.7842220645      -35.1652286507      -40.6736497912
  O       -23.8965243634      -36.2189849250      -27.9855933496
  O       -24.5157869840      -31.2503843119      -29.9507538536
  O       -27.7363113956      -38.3506560298      -30.8366149517
  O       -26.7356909846      -24.4907341392      -36.7392002744
  O       -29.1341249418      -23.8215604055      -35.2051121808
  O       -19.6464663724      -30.9924145736      -29.5859741039
  O       -21.4119413826      -24.8688378403      -33.6573372650
  O       -24.5948605576      -31.2455802381      -44.0151415647
  O       -23.8964581860      -36.2197310706      -42.4203583541
  O       -27.7359660486      -38.3501776747      -39.5731039929
  O       -30.7241729073      -33.0634001170      -31.2696632577
  O       -23.0232709759      -38.5306988772      -35.9735622179
  O       -17.5539082694      -31.5759380211      -33.7337796242
  O       -20.2331974424      -25.9052577414      -32.8569940305
  O       -26.7357152311      -24.4908075643      -33.6666583957
  O       -30.7242014034      -33.0634162567      -39.1384323253
  O       -23.0246378500      -38.5304796545      -34.4338678363
  O       -24.5950439821      -31.2457198990      -26.3930685249
  O       -26.3094971791      -36.0650079839      -29.6842205908
  O       -28.8602776063      -33.8605027422      -33.5259688082
  O       -22.0467319522      -35.7815729284      -35.2052522704
  O       -27.9167173242      -26.8901314254      -39.8854439631
  O       -29.5647123961      -30.4821431323      -40.7317729969
  O       -21.9962953013      -29.7746320995      -39.5711903367
  O       -29.5445878965      -29.1714356156      -35.2053015319
  O       -17.5543238360      -31.5760203900      -36.6724409901
  O       -20.2326216886      -25.9051466625      -37.5483782981
  O       -26.3099639810      -36.0647544729      -40.7245426818
  O       -28.8605794206      -33.8602566036      -36.8795171698
  O       -22.2962811285      -36.3516652035      -30.4871708924
  O       -26.8990424966      -30.7344793322      -42.2875448866
  O       -29.2274180606      -30.9184544218      -37.7762594221
  O       -21.3096379565      -27.5096116570      -35.2052217559
  O       -21.9963964686      -29.7743805185      -30.8375565489
  O       -27.9157399616      -26.8905943775      -30.5230832577
  O       -29.5653246383      -30.4819686923      -29.6766359580
  O       -22.2966821864      -36.3524664122      -39.9202823115
  O       -25.6098109097      -38.3927064858      -37.4768926382
  O       -30.4452103451      -35.6559245623      -35.2051397831
  O       -18.7687084908      -24.8439183467      -35.2053526092
  O       -22.0305438881      -27.0095317006      -40.8723067266
  O       -20.6550836098      -27.1554291893      -40.0090413377
  O       -26.8990703618      -30.7345068591      -28.1237038891
  O       -29.2279154588      -30.9181168394      -32.6304231354
  O       -25.6108403923      -38.3925916282      -32.9289541895
  O       -25.1658380741      -33.5743554216      -28.1391110188
  O       -31.4852860344      -32.6881447529      -32.7202691814
  O       -26.4896580691      -35.5331666937      -32.6330535065
  O       -27.0053391299      -29.7077135751      -39.4800971650
  O       -32.3091724749      -30.6961374005      -39.5268058607
  O       -22.0315720458      -27.0093281296      -29.5368038069
  O       -20.6536889532      -27.1554415216      -30.3958295916
  O       -25.1658005812      -33.5741095876      -42.2707487653
  O       -26.4900748021      -35.5337654968      -37.7738948142
  O       -31.4851622542      -32.6883781198      -37.6876150183
  O       -20.8975846707      -37.2549772390      -37.4836944390
  O       -26.6861318458      -24.1860480316      -39.7316313375
  O       -22.2235839070      -30.7498479669      -42.3509207394
  O       -23.0327736779      -29.4300212128      -42.3040447243
  O       -29.8975134047      -29.0982910712      -40.0566716994
  O       -19.4935566830      -33.6384720462      -39.7709075542
  O       -27.0060560731      -29.7070265489      -30.9284562616
  O       -32.3086975537      -30.6961789142      -30.8778443132
  O       -20.8972725460      -37.2550985284      -32.9235407842
  O       -20.1279437634      -31.6401721734      -37.9318008641
  O       -32.8050296043      -27.7033485682      -35.2045899691
  O       -22.2235938211      -30.7501638917      -28.0580385670
  O       -23.0324281230      -29.4300295041      -28.1021560690
  O       -26.6860483080      -24.1857094979      -30.6777489909
  O       -29.8971308351      -29.0982936897      -30.3528432898
  O       -19.4930670422      -33.6382227050      -30.6347598048
  O       -26.9696441775      -38.2814375876      -36.7076927459
  K       -27.4824970017      -28.9673827786      -36.9991315077
  K       -27.4824808991      -28.9673607547      -33.4078587439
  K       -23.9703998853      -34.9345149948      -37.0099942310
  K       -23.9704279938      -34.9344633597      -33.3970142562
  K       -20.8398430114      -33.0081006711      -35.2034869589
  K       -24.2903465429      -27.1188141805      -35.2034425719
  K       -26.8779337407      -32.6384570944      -38.8753882717
  K       -26.8778969022      -32.6384206469      -31.5316179536
  K       -21.1068740633      -29.2273023638      -37.1335270701
  K       -21.1069036215      -29.2272778819      -33.2733561311
  K       -22.5094402284      -32.3131545331      -39.1385309071
  K       -22.5094272337      -32.3130655510      -31.2684509951
  K       -24.4315581093      -28.8351396039      -39.2484594069
  K       -24.4314599198      -28.8350934200      -31.1585056212
  K       -29.4259705722      -31.7907686835      -35.2035054728
  K       -27.4203660099      -35.3600184878      -35.2034890295
  K       -20.7734164340      -33.1182607785      -27.7521086341
  K       -20.7733900953      -33.1183366007      -42.6549284432
  K       -30.8709488875      -24.0160539143      -37.6447364218
  K       -30.8709382863      -24.0160509129      -32.7622484674
  K       -28.2906225031      -25.3683351012      -42.2454122118
  K       -28.2906051422      -25.3683384238      -28.1616176775
  K       -21.1192310033      -37.4958781626      -42.1805046976
  K       -21.1192493256      -37.4958949409      -28.2264984168
  K       -26.9931321832      -29.4525527799      -44.5711763293
  K       -26.9931886137      -29.4527452693      -25.8359040000
  K       -17.7513057186      -34.4968275024      -28.5889426763
  K       -17.7512983256      -34.4968576962      -41.8180839620
     196
 i =        2, E =     -4461.2991170899
  U       -22.1153662524      -25.7708805258      -38.8410583292
  U       -26.2111807003      -25.5634175528      -38.7942737679
  U       -21.0786429008      -29.1207022541      -29.3233098909
  U       -24.5178669844      -31.2293479506      -42.2490255478
  U       -24.2259760132      -35.2670453909      -40.9912180202
  U       -27.1360954634      -36.9881543635      -31.7068221054
  U       -25.1713018395      -38.4286311694      -35.2165489884
  U       -17.8392795598      -29.8262226456      -35.2010991135
  U       -27.8381432864      -29.0087211214      -40.9783162516
  U       -22.1257181098      -25.7633841204      -31.5838426147
  U       -26.2084157133      -25.5733979444      -31.6161643150
  U       -27.1425580562      -36.9947727449      -38.6987107597
  U       -24.5210154079      -31.2298718654      -28.1701262466
  U       -30.4299300040      -34.7229651571      -32.9732781465
  U       -18.5418787806      -31.7436044700      -38.7748873154
  U       -28.2028020663      -25.3367745932      -35.2005685896
  U       -30.7892819665      -30.7936221912      -38.7058322847
  U       -27.8339620769      -29.0118617945      -29.4380645728
  U       -30.4156555909      -34.7257168521      -37.4516950293
  U       -21.1439901593      -37.3902531458      -35.2064607171
  U       -20.3474809136      -35.5094377842      -31.7147865638
  U       -21.0742925627      -29.0961075088      -41.0898252058
  U       -20.0438320328      -26.0719963736      -35.2048450905
  U       -31.2359966227      -28.4411531824      -35.2079103899
  U       -18.5454165002      -31.7476579107      -31.6368523823
  U       -30.7991987283      -30.7892772463      -31.7060177277
  U       -20.3455188557      -35.5144346027      -38.6941538690
  U       -24.2223182622      -35.2648556418      -29.4140324612
  O       -18.4611663683      -27.6133212955      -34.4455102058
  O       -21.5258398027      -24.3327166145      -39.7525500721
  O       -28.5663058438      -28.2530220185      -42.4856431109
  O       -30.2304229181      -26.3787971329      -34.4231044112
  O       -20.1897943585      -31.6189382173      -32.4903081804
  O       -26.9628483438      -38.2760798974      -33.6652615889
  O       -29.1242959442      -35.8304875065      -31.3535462751
  O       -31.1767790656      -34.3244906451      -35.2264367859
  O       -24.2253994865      -25.5705474110      -39.7797680140
  O       -31.8641573065      -30.0300510777      -36.7385849943
  O       -18.4606106545      -27.6174711699      -35.9686710846
  O       -28.5699293554      -28.2607201782      -27.9313562176
  O       -21.5228602398      -24.3322886134      -30.6754939182
  O       -30.2314697965      -26.3811803837      -35.9989065385
  O       -29.1218022354      -35.8230053566      -39.0443539902
  O       -25.2637897725      -40.2157761025      -35.2138182940
  O       -31.9291020547      -35.5939630067      -32.5348339766
  O       -22.7735074781      -27.2758653151      -37.9053013418
  O       -31.3686646416      -28.8127569353      -37.4677158064
  O       -24.2266074180      -25.5709382292      -30.6289889286
  O       -31.8647607412      -30.0312974106      -33.6811720743
  O       -31.9338783994      -35.5897723832      -37.8661746744
  O       -29.2509054593      -36.6683236532      -32.6603073104
  O       -25.0719524995      -36.5151159217      -35.2195830333
  O       -19.6639273975      -36.4800490862      -33.5653397264
  O       -17.7535908918      -30.1210268343      -37.4716233694
  O       -21.5298542694      -34.3612099127      -32.6206182419
  O       -24.1796196067      -24.7234507894      -38.3969910184
  O       -27.3516500584      -27.0026141710      -35.2225792594
  O       -20.1462424455      -28.6546355575      -42.5682881317
  O       -22.7705049096      -27.2735206096      -32.5227451997
  O       -31.3636790399      -28.8100281493      -32.9597089747
  O       -29.2519509764      -36.6592010964      -37.7318333704
  O       -19.6595641381      -36.4783963559      -36.8549416431
  O       -21.5372634304      -34.3574551300      -37.8117043885
  O       -19.0537936713      -29.8134031807      -40.0470313997
  O       -17.0386997450      -31.9773125203      -39.7913727203
  O       -18.6490716441      -34.0706875885      -38.3020191001
  O       -17.7515795430      -30.1277287219      -32.9119645266
  O       -20.1421746221      -28.6493001238      -27.8664088071
  O       -24.1825235378      -24.7224634871      -32.0138862983
  O       -25.2190753861      -36.9704991400      -30.3670630048
  O       -19.3399291619      -36.5451719774      -30.5378748617
  O       -24.2962050654      -34.1523946180      -30.9155762528
  O       -26.6124477190      -26.9801235182      -40.6896382658
  O       -25.9465966796      -29.3988831613      -42.2425216547
  O       -19.0625683697      -29.8094551827      -30.3796948751
  O       -18.6563222097      -34.0678188327      -32.1126906151
  O       -17.0385736825      -31.9737326414      -30.6295896360
  O       -25.2225887238      -36.9684048088      -40.0676095165
  O       -24.3021877848      -34.1489576615      -39.4963402522
  O       -19.3346852619      -36.5450713436      -39.8729280740
  O       -20.1515613447      -38.8813129324      -35.2252723032
  O       -16.0902889832      -29.4419804720      -35.2178591759
  O       -28.1274229441      -25.2118297769      -37.4821119999
  O       -25.8355961524      -27.1018058745      -37.8020402416
  O       -19.6712344871      -30.2895871703      -35.2207630239
  O       -26.6232865921      -26.9793507397      -29.6972488137
  O       -25.9478986002      -29.3979606889      -28.1168247050
  O       -24.5543015194      -31.2870648387      -40.3809939294
  O       -23.5481735693      -33.3802794278      -28.1419206320
  O       -21.7627811798      -35.1654534288      -29.6728010256
  O       -21.3381992454      -24.9262188675      -36.7596027793
  O       -19.6415470421      -31.0273866804      -40.8084678991
  O       -28.1256011299      -25.2072387580      -32.9042601919
  O       -25.8341390576      -27.0993795647      -32.6291859814
  O       -23.5472019118      -33.3823380037      -42.2295412114
  O       -21.7645694071      -35.1627316731      -40.7088062839
  O       -23.8003643147      -36.2677473619      -27.9343017043
  O       -24.5567113916      -31.2915056276      -30.0390689522
  O       -27.7602225880      -38.4147767424      -30.8187332001
  O       -26.8319643036      -24.5253024180      -36.7815682881
  O       -29.2430843929      -23.7872512113      -35.2237298667
  O       -19.6321867969      -31.0210486854      -29.5971309104
  O       -21.3285441999      -24.9244969770      -33.6515113838
  O       -24.6167637438      -31.2682161380      -44.0402558743
  O       -23.8017391998      -36.2748804440      -42.4655057971
  O       -27.7566489762      -38.4078182518      -39.6213030843
  O       -30.7135928655      -33.1169640230      -31.3572073269
  O       -23.0015737083      -38.5039831128      -35.9528608807
  O       -17.5275220919      -31.5471233878      -33.6301383196
  O       -20.2529772816      -25.8761752877      -32.9327146756
  O       -26.8335643459      -24.5282745928      -33.6172820367
  O       -30.7167147250      -33.1115151104      -39.0602638547
  O       -23.0017358733      -38.5027440042      -34.4434747855
  O       -24.6151363662      -31.2676633038      -26.3814784873
  O       -26.2814034511      -36.0659935903      -29.7184736836
  O       -28.8602655543      -33.8270051494      -33.5038339948
  O       -22.0866825889      -35.7546716997      -35.2251931095
  O       -27.9278676059      -26.8893614494      -39.9252971521
  O       -29.5504934578      -30.4523932473      -40.7330634565
  O       -21.9800676508      -29.7983290362      -39.5702024869
  O       -29.4805387838      -29.1450631973      -35.2251571104
  O       -17.5306574451      -31.5516780242      -36.7858709076
  O       -20.2497350337      -25.8793146601      -37.4497974549
  O       -26.2856471396      -36.0643285975      -40.7141721980
  O       -28.8628860566      -33.8232464291      -36.8798416555
  O       -22.2795019175      -36.3454574892      -30.4310922966
  O       -26.8676220824      -30.6993756689      -42.3235197263
  O       -29.1654672815      -30.9185158086      -37.7617580616
  O       -21.3407704518      -27.4710166511      -35.2230386520
  O       -21.9796422804      -29.7911017339      -30.8586222986
  O       -27.9152797879      -26.8948001820      -30.5080898599
  O       -29.5571147948      -30.4501573395      -29.6945393179
  O       -22.2810090012      -36.3532719219      -39.9676186350
  O       -25.6637042546      -38.3640489075      -37.5010688068
  O       -30.4462792061      -35.6232245894      -35.2195555996
  O       -18.7540577615      -24.8305859292      -35.2229914642
  O       -21.9940981557      -27.0372515176      -40.8312999257
  O       -20.6687821924      -27.1567610288      -40.0166684128
  O       -26.8659598949      -30.7025061702      -28.1292369568
  O       -29.1705781132      -30.9149174642      -32.6422865025
  O       -25.6648591595      -38.3657750805      -32.8959495701
  O       -25.1054461626      -33.5677244391      -28.1463921459
  O       -31.4773602691      -32.7248142065      -32.6907138918
  O       -26.4755164901      -35.4944991232      -32.6392416293
  O       -26.9631578904      -29.7306658319      -39.4665557516
  O       -32.3628743090      -30.6699486361      -39.5535860956
  O       -22.0007466771      -27.0308331860      -29.5896290857
  O       -20.6578395086      -27.1536032097      -30.3559992203
  O       -25.1038681022      -33.5634273453      -42.2914079025
  O       -26.4785524719      -35.4987951943      -37.7692140117
  O       -31.4769628642      -32.7281658546      -37.7214095285
  O       -20.8669835443      -37.2870157606      -37.4771376057
  O       -26.7406179365      -24.1536556215      -39.8160187486
  O       -22.2390990128      -30.7843747971      -42.3520455965
  O       -23.0376940951      -29.4915217908      -42.3171453325
  O       -29.8745925438      -29.1044893527      -40.0818940143
  O       -19.4482625894      -33.6890951375      -39.8121555930
  O       -26.9677336532      -29.7255786995      -30.9642981392
  O       -32.3569704084      -30.6717719142      -30.8275793720
  O       -20.8646732467      -37.2896963261      -32.9298779218
  O       -20.1905651202      -31.6165493328      -37.9287914091
  O       -32.8452854565      -27.6382141620      -35.2151241402
  O       -22.2385113678      -30.7864936537      -28.0753587926
  O       -23.0296567688      -29.4877373673      -28.0788079853
  O       -26.7413140879      -24.1483189127      -30.6219641133
  O       -29.8694664270      -29.1033302622      -30.3576379622
  O       -19.4426086164      -33.6912965477      -30.5813756093
  O       -26.9675160736      -38.2718820502      -36.7345655234
  K       -27.5513935201      -28.9302072994      -37.0418626621
  K       -27.5520364203      -28.9299139058      -33.3663805394
  K       -23.9701527429      -35.0308658852      -37.0236948489
  K       -23.9688673250      -35.0303532898      -33.3859056129
  K       -20.7358181070      -33.0424988339      -35.2044237620
  K       -24.2538971453      -27.0208735732      -35.2043804433
  K       -26.9313822751      -32.6598745244      -38.9258993733
  K       -26.9310624646      -32.6575534315      -31.4813586538
  K       -21.0557615325      -29.1842827407      -37.1760392330
  K       -21.0551535921      -29.1848112738      -33.2350743027
  K       -22.4610411032      -32.2938505925      -39.1734839251
  K       -22.4608155550      -32.2944747219      -31.2341073015
  K       -24.4224789992      -28.7949790265      -39.3135034828
  K       -24.4252791963      -28.7956468583      -31.0946767339
  K       -29.4961198182      -31.8234078132      -35.2043416001
  K       -27.4652866140      -35.4115662877      -35.2072220686
  K       -20.8607745940      -33.0308082537      -27.7918993931
  K       -20.8616117012      -33.0294710868      -42.6133451115
  K       -30.8235944132      -24.0390532444      -37.6089438486
  K       -30.8237731813      -24.0393595028      -32.7985025890
  K       -28.2532217390      -25.4066848463      -42.2174138975
  K       -28.2535948047      -25.4069123628      -28.1891309109
  K       -21.1805959290      -37.5016081361      -42.0961689203
  K       -21.1793995934      -37.5015073342      -28.3095640004
  K       -27.0120330435      -29.4323954659      -44.5336338734
  K       -27.0137848963      -29.4378454478      -25.8727764678
  K       -17.6953658000      -34.4695442067      -28.7241120147
  K       -17.6962005949      -34.4688025299      -41.6814184624
     196
 i =        3, E =     -4461.9518268213
  U       -22.0628722839      -25.7197229423      -38.8116686295
  U       -26.3070700880      -25.5939355809      -38.8606900805
  U       -21.0167548826      -29.1660197718      -29.2957517544
  U       -24.5592214221      -31.3090829281      -42.2106246059
  U       -24.0886237970      -35.2266450459      -41.0549372894
  U       -27.1622883268      -37.0387678854      -31.6964488179
  U       -25.1932077863      -38.4682853718      -35.2862749052
  U       -17.7825343929      -29.7567554835      -35.2098615192
  U       -27.8146666118      -28.9672030069      -40.9942037140
  U       -22.0605813500      -25.7168163662      -31.6169168537
  U       -26.3117213069      -25.6006335534      -31.5595622102
  U       -27.1625784898      -37.0717455881      -38.6615070208
  U       -24.5659140245      -31.3051757839      -28.2176901658
  U       -30.4906236846      -34.7766076847      -32.9877252123
  U       -18.5634092353      -31.6934270236      -38.9241819637
  U       -28.2903985325      -25.3642988951      -35.2123239542
  U       -30.8065593699      -30.7945723203      -38.7513241178
  U       -27.8134848234      -28.9608514149      -29.4215915066
  U       -30.4527853553      -34.7893566784      -37.4600275861
  U       -21.1734447726      -37.4631121519      -35.2101640338
  U       -20.4662451360      -35.5395093611      -31.5683691460
  U       -21.0002807578      -29.1586294434      -41.1347549429
  U       -20.0590190747      -26.0094838475      -35.2112181940
  U       -31.2315751643      -28.3564058615      -35.2119873398
  U       -18.5668548287      -31.7070043073      -31.5019385109
  U       -30.8168145192      -30.7845556976      -31.6640791947
  U       -20.4771624615      -35.5349711685      -38.8513261130
  U       -24.0664807535      -35.2179008062      -29.3557259987
  O       -18.4471696493      -27.6327907401      -34.5179341068
  O       -21.5211802225      -24.2951300145      -39.7656687907
  O       -28.5703933879      -28.1675620838      -42.5449491213
  O       -30.2647429909      -26.3407793694      -34.4786594568
  O       -20.2079359403      -31.5907775734      -32.5504247160
  O       -26.9569426603      -38.2700222730      -33.6261738851
  O       -29.1735993179      -35.8506075504      -31.4315010853
  O       -31.1862476303      -34.3627154959      -35.2135839966
  O       -24.1794544239      -25.4657742538      -39.6975511289
  O       -31.8323832314      -30.0266859431      -36.7863737313
  O       -18.4467684064      -27.6419340311      -35.8988315890
  O       -28.5789484958      -28.1933874452      -27.8586305421
  O       -21.5155966150      -24.2848651970      -30.6830845140
  O       -30.2631612074      -26.3423671949      -35.9388385286
  O       -29.1606534491      -35.8435806263      -38.9889258489
  O       -25.3036010352      -40.3048691854      -35.2260720150
  O       -31.9739134988      -35.6030746410      -32.4905614550
  O       -22.8098214098      -27.2634334036      -37.8992422177
  O       -31.3563733494      -28.8457273938      -37.4612481772
  O       -24.1719037636      -25.4670975956      -30.7065718154
  O       -31.8294101039      -30.0311618462      -33.6100630218
  O       -31.9792941963      -35.5950963798      -37.8831441092
  O       -29.2419220763      -36.6702555399      -32.6032782090
  O       -25.0605668077      -36.5151387954      -35.2196520926
  O       -19.7076763527      -36.5546204925      -33.5402229173
  O       -17.7066735337      -30.2034250279      -37.4715446024
  O       -21.5312986768      -34.3437019397      -32.6648540142
  O       -24.1896812717      -24.7192548382      -38.5336977859
  O       -27.2705736456      -27.0159920507      -35.2299623265
  O       -20.1493681403      -28.6362510656      -42.6101022796
  O       -22.8132652309      -27.2571186829      -32.5319165011
  O       -31.3579604617      -28.8368794076      -32.9468214444
  O       -29.2374106586      -36.6485215590      -37.7872818523
  O       -19.6954085660      -36.5597871294      -36.9021046796
  O       -21.5402139794      -34.3391143484      -37.7559726193
  O       -19.0916757246      -29.8751115101      -40.1271319222
  O       -17.0148951997      -32.0824481658      -39.8296456143
  O       -18.6633044069      -34.0622586288      -38.5520191001
  O       -17.6978515884      -30.1974080318      -32.9290409017