 DBCSR| CPU Multiplication driver                                           XSMM
 DBCSR| Multrec recursion limit                                              512
 DBCSR| Multiplication stack size                                           1000
 DBCSR| Maximum elements for images                                    UNLIMITED
 DBCSR| Multiplicative factor virtual images                                   1
 DBCSR| Use multiplication densification                                       T
 DBCSR| Multiplication size stacks                                             3
 DBCSR| Use memory pool for CPU allocation                                     F
 DBCSR| Number of 3D layers                                               SINGLE
 DBCSR| Use MPI memory allocation                                              F
 DBCSR| Use RMA algorithm                                                      F
 DBCSR| Use Communication thread                                               T
 DBCSR| Communication thread load                                             87
 DBCSR| MPI: My node id                                                        0
 DBCSR| MPI: Number of nodes                                                  56
 DBCSR| OMP: Current number of threads                                         1
 DBCSR| OMP: Max number of threads                                             1
 DBCSR| Split modifier for TAS multiplication algorithm                  1.0E+00


  **** **** ******  **  PROGRAM STARTED AT               2023-09-17 16:17:17.985
 ***** ** ***  *** **   PROGRAM STARTED ON                           ibc11b02n08
 **    ****   ******    PROGRAM STARTED BY                                 junli
 ***** **    ** ** **   PROGRAM PROCESS ID                                 59005
  **** **  *******  **  PROGRAM STARTED IN    /WORK/junli_work/libin/1_U28/0_try

 CP2K| version string:                                          CP2K version 9.1
 CP2K| source code revision number:                                  git:d8d7100
 CP2K| cp2kflags: omp libint fftw3 libxc elpa parallel mpi3 scalapack cosma xsmm
 CP2K|             plumed2 spglib libvori libbqb
 CP2K| is freely available from                            https://www.cp2k.org/
 CP2K| Program compiled at                          Sun Aug 13 14:10:33 CST 2023
 CP2K| Program compiled on                                               ibcln01
 CP2K| Program compiled for                                                local
 CP2K| Data directory path                         /apps/soft/cp2k/cp2k-9.1/data
 CP2K| Input file name                                                  cp2k.inp

 GLOBAL| Force Environment number                                              1
 GLOBAL| Basis set file name                                        BASIS_MOLOPT
 GLOBAL| Potential file name                                      GTH_POTENTIALS
 GLOBAL| MM Potential file name                                     MM_POTENTIAL
 GLOBAL| Coordinate file name                                          U28_0.xyz
 GLOBAL| Method name                                                        CP2K
 GLOBAL| Project name                                                        U28
 GLOBAL| Run type                                                        GEO_OPT
 GLOBAL| FFT library                                                       FFTW3
 GLOBAL| Diagonalization library                                            ELPA
 GLOBAL| Minimum number of eigenvectors for ELPA usage                        16
 GLOBAL| Orthonormality check for eigenvectors                          DISABLED
 GLOBAL| Matrix multiplication library                                     COSMA
 GLOBAL| All-to-all communication in single precision                          F
 GLOBAL| FFTs using library dependent lengths                                  F
 GLOBAL| Grid backend                                                       AUTO
 GLOBAL| Global print level                                                  LOW
 GLOBAL| MPI I/O enabled                                                       T
 GLOBAL| Total number of message passing processes                            56
 GLOBAL| Number of threads for this process                                    1
 GLOBAL| This output is from process                                           0
 GLOBAL| Stack size for threads created by OpenMP (OMP_STACKSIZE)        default
 GLOBAL| CPU model name                Intel(R) Xeon(R) Gold 6258R CPU @ 2.70GHz
 GLOBAL| CPUID                                                              1003

 MEMORY| system memory details [Kb]
 MEMORY|                        rank 0           min           max       average
 MEMORY| MemTotal            196695916     196695916     196695916     196695916
 MEMORY| MemFree             172003244     172003244     172003244     172003244
 MEMORY| Buffers                     0             0             0             0
 MEMORY| Cached                2202124       2202124       2202124       2202124
 MEMORY| Slab                  1686640       1686640       1686640       1686640
 MEMORY| SReclaimable           278040        278040        278040        278040
 MEMORY| MemLikelyFree       174483408     174483408     174483408     174483408


 *******************************************************************************
 *******************************************************************************
 **                                                                           **
 **     #####                         ##              ##                      **
 **    ##   ##            ##          ##              ##                      **
 **   ##     ##                       ##            ######                    **
 **   ##     ##  ##   ##  ##   #####  ##  ##   ####   ##    #####    #####    **
 **   ##     ##  ##   ##  ##  ##      ## ##   ##      ##   ##   ##  ##   ##   **
 **   ##  ## ##  ##   ##  ##  ##      ####     ###    ##   ######   ######    **
 **    ##  ###   ##   ##  ##  ##      ## ##      ##   ##   ##       ##        **
 **     #######   #####   ##   #####  ##  ##  ####    ##    #####   ##        **
 **           ##                                                    ##        **
 **                                                                           **
 **                                                ... make the atoms dance   **
 **                                                                           **
 **            Copyright (C) by CP2K developers group (2000-2021)             **
 **                      J. Chem. Phys. 152, 194103 (2020)                    **
 **                                                                           **
 *******************************************************************************


 TOTAL NUMBERS AND MAXIMUM NUMBERS

  Total number of            - Atomic kinds:                                   3
                             - Atoms:                                        196
                             - Shell sets:                                   196
                             - Shells:                                      1148
                             - Primitive Cartesian functions:               1064
                             - Cartesian basis functions:                   3948
                             - Spherical basis functions:                   3388

  Maximum angular momentum of- Orbital basis functions:                        4
                             - Local part of the GTH pseudopotential:          2
                             - Non-local part of the GTH pseudopotential:      3

 *** WARNING in particle_methods.F:684 :: The distance between the atoms ***
 *** 108 and 113 is only 0.432 angstrom and thus smaller than the        ***
 *** threshold of 0.500 angstrom                                         ***



 SCF PARAMETERS         Density guess:                                   RESTART
                        --------------------------------------------------------
                        max_scf:                                              50
                        max_scf_history:                                       0
                        max_diis:                                              4
                        --------------------------------------------------------
                        eps_scf:                                        1.00E-05
                        eps_scf_history:                                0.00E+00
                        eps_diis:                                       1.00E-01
                        eps_eigval:                                     1.00E-05
                        --------------------------------------------------------
                        level_shift [a.u.]:                                 0.00
                        --------------------------------------------------------
                        Outer loop SCF in use 
                        No variables optimised in outer loop
                        eps_scf                                         1.00E-05
                        max_scf                                               10
                        No outer loop optimization
                        step_size                                       5.00E-01

 BFGS| Use rational function optimization for step estimation:                NO
 BFGS| Use model Hessian for initial guess:                                  YES
 BFGS| Restart Hessian:                                                       NO
 BFGS| Trust radius:                                                       0.472

 *******************************************************************************
 ***                     STARTING GEOMETRY OPTIMIZATION                      ***
 ***                                   BFGS                                  ***
 *******************************************************************************

 Number of electrons:                                                       1484
 Number of occupied orbitals:                                                742
 Number of molecular orbitals:                                               742

 Number of orbital functions:                                               3388
 Number of independent orbital functions:                                   3388

 Extrapolation method: initial_guess

 *** WARNING in qs_initial_guess.F:309 :: User requested to restart the    ***
 *** wavefunction from the file named: U28-RESTART.wfn. This file does not ***
 *** exist. Please check the existence of the file or change properly the  ***
 *** value of the keyword WFN_RESTART_FILE_NAME. Calculation continues     ***
 *** using ATOMIC GUESS.                                                   ***



 SCF WAVEFUNCTION OPTIMIZATION

  ----------------------------------- OT ---------------------------------------
  Minimizer      : DIIS                : direct inversion
                                         in the iterative subspace
                                         using   7 DIIS vectors
                                         safer DIIS on
  Preconditioner : FULL_SINGLE         : diagonalization based
  Precond_solver : DEFAULT
  stepsize       :    0.15000000                  energy_gap     :    0.20000000
  eps_taylor     :   0.10000E-15                  max_taylor     :             4
  ----------------------------------- OT ---------------------------------------

  Step     Update method      Time    Convergence         Total energy    Change
  ------------------------------------------------------------------------------
     1 OT DIIS     0.15E+00    6.0     0.06903427     -4165.8089831475 -4.17E+03
     2 OT DIIS     0.15E+00    2.0     0.09713834     -3657.5946367746  5.08E+02
     3 OT DIIS     0.15E+00    1.9     0.09361515     -3904.8971333891 -2.47E+02
     4 OT DIIS     0.15E+00    1.8     0.21333774     -3785.4121653644  1.19E+02
     5 OT DIIS     0.15E+00    1.9     0.20775966     -3882.5293099884 -9.71E+01
     6 OT DIIS     0.15E+00    2.0     0.18029834     -3954.3270401428 -7.18E+01
     7 OT DIIS     0.15E+00    2.1     0.18370695     -4000.3210186168 -4.60E+01
     8 OT DIIS     0.15E+00    1.9     0.11184457     -4113.9688432894 -1.14E+02
     9 OT DIIS     0.15E+00    2.1     0.14803922     -4091.8994316540  2.21E+01
    10 OT DIIS     0.15E+00    2.1     0.11042150     -4111.3483118450 -1.94E+01
    11 OT DIIS     0.15E+00    2.1     0.21820598     -3929.1125716748  1.82E+02
    12 OT DIIS     0.15E+00    2.1     0.16628482     -4016.0579820996 -8.69E+01
    13 OT DIIS     0.15E+00    2.2     0.28962573     -3768.3214978485  2.48E+02
    14 OT DIIS     0.15E+00    2.1     0.31863531     -3587.8900533136  1.80E+02
    15 OT DIIS     0.15E+00    2.1     0.36724413     -3499.3915291892  8.85E+01
    16 OT DIIS     0.15E+00    2.1     0.34487377     -3416.1057273787  8.33E+01
    17 OT DIIS     0.15E+00    1.9     0.38760521     -3190.0491660730  2.26E+02
    18 OT DIIS     0.15E+00    1.9     0.23196134     -3447.0574074461 -2.57E+02
    19 OT DIIS     0.15E+00    2.1     0.37212915     -3068.3910365358  3.79E+02
    20 OT DIIS     0.15E+00    2.1     0.27965676     -3086.0469965039 -1.77E+01
    21 OT DIIS     0.15E+00    1.9     0.35269676     -2767.1101298685  3.19E+02
    22 OT DIIS     0.15E+00    1.9     0.26735466     -3052.2518862099 -2.85E+02
    23 OT DIIS     0.15E+00    1.8     0.41165737     -2494.9825696920  5.57E+02
    24 OT DIIS     0.15E+00    2.0     0.27831823     -3048.1011989431 -5.53E+02
    25 OT DIIS     0.15E+00    1.9     0.32450276     -2827.4039810409  2.21E+02
    26 OT DIIS     0.15E+00    2.1     0.20488704     -3077.4205996850 -2.50E+02
    27 OT DIIS     0.15E+00    2.1     0.13602513     -3249.8985102962 -1.72E+02
    28 OT DIIS     0.15E+00    2.1     0.16100273     -3258.8222857809 -8.92E+00
    29 OT DIIS     0.15E+00    2.1     0.22212182     -3186.6420724577  7.22E+01
    30 OT DIIS     0.15E+00    2.1     0.20919728     -3317.8578544601 -1.31E+02
    31 OT DIIS     0.15E+00    2.1     0.14473003     -3643.6303305843 -3.26E+02
    32 OT DIIS     0.15E+00    2.1     0.16830056     -3637.2213189143  6.41E+00
    33 OT DIIS     0.15E+00    1.9     0.12417034     -3836.1285393979 -1.99E+02
    34 OT DIIS     0.15E+00    2.0     0.09911615     -3917.0144748406 -8.09E+01
    35 OT DIIS     0.15E+00    2.0     0.12224803     -3901.4694506206  1.55E+01
    36 OT DIIS     0.15E+00    2.1     0.07795709     -4034.7337564470 -1.33E+02
    37 OT DIIS     0.15E+00    2.1     0.06122723     -4112.6367432122 -7.79E+01
    38 OT DIIS     0.15E+00    2.1     0.04220712     -4165.7636289386 -5.31E+01
    39 OT DIIS     0.15E+00    2.2     0.04538326     -4174.4363916300 -8.67E+00
    40 OT DIIS     0.15E+00    1.8     0.02873067     -4215.3660293800 -4.09E+01
    41 OT DIIS     0.15E+00    2.0     0.03175815     -4215.2730985471  9.29E-02
    42 OT DIIS     0.15E+00    2.0     0.02033529     -4233.5428758908 -1.83E+01
    43 OT DIIS     0.15E+00    1.9     0.01927546     -4238.2896668313 -4.75E+00
    44 OT DIIS     0.15E+00    2.1     0.00895875     -4248.6163128471 -1.03E+01
    45 OT DIIS     0.15E+00    2.1     0.01270381     -4248.6815354171 -6.52E-02
    46 OT DIIS     0.15E+00    1.9     0.00596013     -4252.8983536552 -4.22E+00
    47 OT DIIS     0.15E+00    2.1     0.00479922     -4254.7411365210 -1.84E+00
    48 OT DIIS     0.15E+00    2.1     0.00386520     -4256.2533525444 -1.51E+00
    49 OT DIIS     0.15E+00    2.1     0.00360759     -4257.9383267469 -1.68E+00
    50 OT DIIS     0.15E+00    2.1     0.00328430     -4259.6086180532 -1.67E+00

  Leaving inner SCF loop after reaching    50 steps.


  Electronic density on regular grids:      -1483.9999999965        0.0000000035
  Core density on regular grids:             1483.9999999310       -0.0000000690
  Total charge density on r-space grids:       -0.0000000655
  Total charge density g-space grids:          -0.0000000655

  Overlap energy of the core charge distribution:               4.66616222689385
  Self energy of the core charge distribution:             -10331.29031661960289
  Core Hamiltonian energy:                                   3083.60970924165395
  Hartree energy:                                            3800.63274683244435
  Exchange-correlation energy:                               -816.45348420839434
  Dispersion energy:                                           -0.77343552614879

  Total energy:                                             -4259.60861805315471

  outer SCF iter =    1 RMS gradient =   0.33E-02 energy =      -4259.6086180532

  ----------------------------------- OT ---------------------------------------
  Minimizer      : DIIS                : direct inversion
                                         in the iterative subspace
                                         using   7 DIIS vectors
                                         safer DIIS on
  Preconditioner : FULL_SINGLE         : diagonalization based
  Precond_solver : DEFAULT
  stepsize       :    0.15000000                  energy_gap     :    0.20000000
  eps_taylor     :   0.10000E-15                  max_taylor     :             4
  ----------------------------------- OT ---------------------------------------

  Step     Update method      Time    Convergence         Total energy    Change
  ------------------------------------------------------------------------------
     1 OT DIIS     0.15E+00    8.5     0.02511911     -4261.0652485650 -1.46E+00
     2 OT DIIS     0.15E+00    1.9     0.05091622     -4212.6455750956  4.84E+01
     3 OT DIIS     0.15E+00    1.9     0.05088895     -4278.4917397158 -6.58E+01
     4 OT DIIS     0.15E+00    1.9     0.04693922     -4302.9374623889 -2.44E+01
     5 OT DIIS     0.15E+00    1.9     0.01832375     -4332.0567552632 -2.91E+01
     6 OT DIIS     0.15E+00    1.9     0.01381046     -4337.3089247625 -5.25E+00
     7 OT DIIS     0.15E+00    2.1     0.01424148     -4339.2798673761 -1.97E+00
     8 OT DIIS     0.15E+00    2.1     0.00964071     -4343.0630847135 -3.78E+00
     9 OT DIIS     0.15E+00    2.2     0.00708727     -4344.8302905356 -1.77E+00
    10 OT DIIS     0.15E+00    2.0     0.00456453     -4345.9649325116 -1.13E+00
    11 OT DIIS     0.15E+00    1.9     0.00409100     -4346.4768570619 -5.12E-01
    12 OT DIIS     0.15E+00    2.1     0.00348325     -4346.9563977877 -4.80E-01
    13 OT DIIS     0.15E+00    2.2     0.00195776     -4347.5192015309 -5.63E-01
    14 OT DIIS     0.15E+00    1.9     0.00248992     -4347.6818366050 -1.63E-01
    15 OT DIIS     0.15E+00    2.1     0.00218291     -4347.9321330281 -2.50E-01
    16 OT DIIS     0.15E+00    2.1     0.00178510     -4348.0810245454 -1.49E-01
    17 OT DIIS     0.15E+00    2.1     0.00180256     -4348.1595300013 -7.85E-02
    18 OT DIIS     0.15E+00    2.1     0.00145513     -4348.3303896653 -1.71E-01
    19 OT DIIS     0.15E+00    1.9     0.00148394     -4348.4126519223 -8.23E-02
    20 OT DIIS     0.15E+00    2.0     0.00137721     -4348.5238922692 -1.11E-01
    21 OT DIIS     0.15E+00    2.0     0.00103437     -4348.5490506008 -2.52E-02
    22 OT DIIS     0.15E+00    2.1     0.00106995     -4348.6837441474 -1.35E-01
    23 OT DIIS     0.15E+00    2.1     0.00104746     -4348.7401426512 -5.64E-02
    24 OT DIIS     0.15E+00    2.1     0.00097216     -4348.7576408728 -1.75E-02
    25 OT DIIS     0.15E+00    2.1     0.00100372     -4348.8402403864 -8.26E-02
    26 OT DIIS     0.15E+00    2.1     0.00083480     -4348.8662693728 -2.60E-02
    27 OT DIIS     0.15E+00    2.2     0.00085112     -4348.9422382770 -7.60E-02
    28 OT DIIS     0.15E+00    2.1     0.00081808     -4348.9667321722 -2.45E-02
    29 OT DIIS     0.15E+00    2.1     0.00076385     -4348.9684808091 -1.75E-03
    30 OT DIIS     0.15E+00    2.0     0.00065057     -4349.0422416678 -7.38E-02
    31 OT DIIS     0.15E+00    1.9     0.00067679     -4349.0625188001 -2.03E-02
    32 OT DIIS     0.15E+00    2.1     0.00067604     -4349.0770172041 -1.45E-02
    33 OT DIIS     0.15E+00    1.9     0.00060730     -4349.1140170763 -3.70E-02
    34 OT DIIS     0.15E+00    2.1     0.00058002     -4349.1297654146 -1.57E-02
    35 OT DIIS     0.15E+00    2.0     0.00052570     -4349.1638673652 -3.41E-02
    36 OT DIIS     0.15E+00    2.0     0.00055706     -4349.1809680442 -1.71E-02
    37 OT DIIS     0.15E+00    2.1     0.00057646     -4349.1895954787 -8.63E-03
    38 OT DIIS     0.15E+00    2.0     0.00046437     -4349.2206506272 -3.11E-02
    39 OT DIIS     0.15E+00    2.1     0.00049502     -4349.2331567892 -1.25E-02
    40 OT DIIS     0.15E+00    2.0     0.00049830     -4349.2464601997 -1.33E-02
    41 OT DIIS     0.15E+00    2.1     0.00045225     -4349.2654263560 -1.90E-02
    42 OT DIIS     0.15E+00    2.1     0.00043370     -4349.2733984677 -7.97E-03
    43 OT DIIS     0.15E+00    2.0     0.00039367     -4349.2919409371 -1.85E-02
    44 OT DIIS     0.15E+00    1.8     0.00040100     -4349.3016176333 -9.68E-03
    45 OT DIIS     0.15E+00    2.1     0.00042880     -4349.3170242939 -1.54E-02
    46 OT DIIS     0.15E+00    1.9     0.00036227     -4349.3268892561 -9.86E-03
    47 OT DIIS     0.15E+00    2.1     0.00037960     -4349.3362709813 -9.38E-03
    48 OT DIIS     0.15E+00    2.1     0.00038886     -4349.3493917562 -1.31E-02
    49 OT DIIS     0.15E+00    2.0     0.00035917     -4349.3587040978 -9.31E-03
    50 OT DIIS     0.15E+00    2.1     0.00036110     -4349.3671088464 -8.40E-03

  Leaving inner SCF loop after reaching    50 steps.


  Electronic density on regular grids:      -1483.9999999976        0.0000000024
  Core density on regular grids:             1483.9999999310       -0.0000000690
  Total charge density on r-space grids:       -0.0000000666
  Total charge density g-space grids:          -0.0000000666

  Overlap energy of the core charge distribution:               4.66616222689385
  Self energy of the core charge distribution:             -10331.29031661960289
  Core Hamiltonian energy:                                   2947.14606828821161
  Hartree energy:                                            3853.39674930831006
  Exchange-correlation energy:                               -822.51233652402652
  Dispersion energy:                                           -0.77343552614879

  Total energy:                                             -4349.36710884636341

  outer SCF iter =    2 RMS gradient =   0.36E-03 energy =      -4349.3671088464

  ----------------------------------- OT ---------------------------------------
  Minimizer      : DIIS                : direct inversion
                                         in the iterative subspace
                                         using   7 DIIS vectors
                                         safer DIIS on
  Preconditioner : FULL_SINGLE         : diagonalization based
  Precond_solver : DEFAULT
  stepsize       :    0.15000000                  energy_gap     :    0.20000000
  eps_taylor     :   0.10000E-15                  max_taylor     :             4
  ----------------------------------- OT ---------------------------------------

  Step     Update method      Time    Convergence         Total energy    Change
  ------------------------------------------------------------------------------
     1 OT DIIS     0.15E+00    8.3     0.00041149     -4349.3749357424 -7.83E-03
     2 OT DIIS     0.15E+00    1.8     0.00093789     -4349.3930681375 -1.81E-02
     3 OT DIIS     0.15E+00    2.1     0.00041462     -4349.4227102841 -2.96E-02
     4 OT DIIS     0.15E+00    2.0     0.00042112     -4349.4382826302 -1.56E-02
     5 OT DIIS     0.15E+00    2.1     0.00036154     -4349.4663879106 -2.81E-02
     6 OT DIIS     0.15E+00    2.1     0.00031433     -4349.4919654876 -2.56E-02
     7 OT DIIS     0.15E+00    2.1     0.00031553     -4349.5218173547 -2.99E-02
     8 OT DIIS     0.15E+00    2.1     0.00028221     -4349.5518508693 -3.00E-02
     9 OT DIIS     0.15E+00    2.1     0.00024550     -4349.5775314312 -2.57E-02
    10 OT DIIS     0.15E+00    1.9     0.00025609     -4349.5891128622 -1.16E-02
    11 OT DIIS     0.15E+00    1.9     0.00021734     -4349.6061773333 -1.71E-02
    12 OT DIIS     0.15E+00    2.1     0.00020522     -4349.6161862103 -1.00E-02
    13 OT DIIS     0.15E+00    2.1     0.00020648     -4349.6226889791 -6.50E-03
    14 OT DIIS     0.15E+00    1.9     0.00017864     -4349.6316995377 -9.01E-03
    15 OT DIIS     0.15E+00    2.1     0.00018488     -4349.6380956851 -6.40E-03
    16 OT DIIS     0.15E+00    2.2     0.00017775     -4349.6416255299 -3.53E-03
    17 OT DIIS     0.15E+00    1.9     0.00016391     -4349.6445276533 -2.90E-03
    18 OT DIIS     0.15E+00    2.1     0.00016224     -4349.6523988270 -7.87E-03
    19 OT DIIS     0.15E+00    1.9     0.00016760     -4349.6516828787  7.16E-04
    20 OT DIIS     0.15E+00    2.1     0.00015136     -4349.6544740256 -2.79E-03
    21 OT DIIS     0.15E+00    1.9     0.00015091     -4349.6576638727 -3.19E-03
    22 OT DIIS     0.15E+00    1.9     0.00013407     -4349.6582139360 -5.50E-04
    23 OT DIIS     0.15E+00    2.0     0.00012617     -4349.6611621786 -2.95E-03
    24 OT DIIS     0.15E+00    2.1     0.00012430     -4349.6623410048 -1.18E-03
    25 OT DIIS     0.15E+00    1.8     0.00011430     -4349.6634966934 -1.16E-03
    26 OT DIIS     0.15E+00    2.1     0.00011080     -4349.6668107128 -3.31E-03
    27 OT DIIS     0.15E+00    1.9     0.00012329     -4349.6682005693 -1.39E-03
    28 OT DIIS     0.15E+00    2.1     0.00011686     -4349.6695833930 -1.38E-03
    29 OT DIIS     0.15E+00    1.9     0.00011964     -4349.6725009011 -2.92E-03
    30 OT DIIS     0.15E+00    2.1     0.00012012     -4349.6735027574 -1.00E-03
    31 OT DIIS     0.15E+00    1.9     0.00011369     -4349.6756617507 -2.16E-03
    32 OT DIIS     0.15E+00    2.1     0.00011540     -4349.6766843852 -1.02E-03
    33 OT DIIS     0.15E+00    2.1     0.00010808     -4349.6776478626 -9.63E-04
    34 OT DIIS     0.15E+00    2.1     0.00009821     -4349.6793172002 -1.67E-03
    35 OT DIIS     0.15E+00    1.9     0.00010328     -4349.6807715410 -1.45E-03
    36 OT DIIS     0.15E+00    1.9     0.00009779     -4349.6812262677 -4.55E-04
    37 OT DIIS     0.15E+00    2.0     0.00009580     -4349.6830990218 -1.87E-03
    38 OT DIIS     0.15E+00    2.2     0.00009703     -4349.6841299710 -1.03E-03
    39 OT DIIS     0.15E+00    2.1     0.00009548     -4349.6857288122 -1.60E-03
    40 OT DIIS     0.15E+00    2.0     0.00009988     -4349.6870855552 -1.36E-03
    41 OT DIIS     0.15E+00    1.9     0.00009924     -4349.6884201441 -1.33E-03
    42 OT DIIS     0.15E+00    2.0     0.00009354     -4349.6893443080 -9.24E-04
    43 OT DIIS     0.15E+00    2.1     0.00009880     -4349.6912937650 -1.95E-03
    44 OT DIIS     0.15E+00    2.0     0.00009599     -4349.6911381246  1.56E-04
    45 OT DIIS     0.15E+00    2.1     0.00009001     -4349.6925023895 -1.36E-03
    46 OT DIIS     0.15E+00    2.1     0.00008866     -4349.6934358535 -9.33E-04
    47 OT DIIS     0.15E+00    2.1     0.00008417     -4349.6941930777 -7.57E-04
    48 OT DIIS     0.15E+00    2.1     0.00008406     -4349.6953096782 -1.12E-03
    49 OT DIIS     0.15E+00    2.0     0.00008462     -4349.6965684924 -1.26E-03
    50 OT DIIS     0.15E+00    2.1     0.00008197     -4349.6970224271 -4.54E-04

  Leaving inner SCF loop after reaching    50 steps.


  Electronic density on regular grids:      -1483.9999999974        0.0000000026
  Core density on regular grids:             1483.9999999310       -0.0000000690
  Total charge density on r-space grids:       -0.0000000664
  Total charge density g-space grids:          -0.0000000664

  Overlap energy of the core charge distribution:               4.66616222689385
  Self energy of the core charge distribution:             -10331.29031661960289
  Core Hamiltonian energy:                                   2946.16237329018350
  Hartree energy:                                            3854.06360317331246
  Exchange-correlation energy:                               -822.52540897173117
  Dispersion energy:                                           -0.77343552614879

  Total energy:                                             -4349.69702242709445

  outer SCF iter =    3 RMS gradient =   0.82E-04 energy =      -4349.6970224271

  ----------------------------------- OT ---------------------------------------
  Minimizer      : DIIS                : direct inversion
                                         in the iterative subspace
                                         using   7 DIIS vectors
                                         safer DIIS on
  Preconditioner : FULL_SINGLE         : diagonalization based
  Precond_solver : DEFAULT
  stepsize       :    0.15000000                  energy_gap     :    0.20000000
  eps_taylor     :   0.10000E-15                  max_taylor     :             4
  ----------------------------------- OT ---------------------------------------

  Step     Update method      Time    Convergence         Total energy    Change
  ------------------------------------------------------------------------------
     1 OT DIIS     0.15E+00    8.3     0.00008750     -4349.6990843144 -2.06E-03
     2 OT DIIS     0.15E+00    1.9     0.00029210     -4349.6988533593  2.31E-04
     3 OT DIIS     0.15E+00    2.1     0.00007812     -4349.7013119318 -2.46E-03
     4 OT DIIS     0.15E+00    2.1     0.00007137     -4349.7018581713 -5.46E-04
     5 OT DIIS     0.15E+00    2.2     0.00008115     -4349.7039751247 -2.12E-03
     6 OT DIIS     0.15E+00    2.1     0.00012301     -4349.7211347578 -1.72E-02
     7 OT SD       0.15E+00    2.2     0.00008323     -4349.7264879869 -5.35E-03
     8 OT DIIS     0.15E+00    1.9     0.00023895     -4349.7255997899  8.88E-04
     9 OT DIIS     0.15E+00    1.9     0.00007501     -4349.7276763590 -2.08E-03
    10 OT DIIS     0.15E+00    2.1     0.00006531     -4349.7315805695 -3.90E-03
    11 OT DIIS     0.15E+00    1.9     0.00006116     -4349.7327608588 -1.18E-03
    12 OT DIIS     0.15E+00    1.8     0.00006194     -4349.7350880845 -2.33E-03
    13 OT DIIS     0.15E+00    2.1     0.00005161     -4349.7373586463 -2.27E-03
    14 OT SD       0.15E+00    2.0     0.00005734     -4349.7386405870 -1.28E-03
    15 OT DIIS     0.15E+00    2.1     0.00022144     -4349.7379528770  6.88E-04
    16 OT DIIS     0.15E+00    2.2     0.00004766     -4349.7409263207 -2.97E-03
    17 OT DIIS     0.15E+00    2.1     0.00004586     -4349.7417306376 -8.04E-04
    18 OT DIIS     0.15E+00    2.1     0.00004180     -4349.7433058887 -1.58E-03
    19 OT DIIS     0.15E+00    1.9     0.00005133     -4349.7437425298 -4.37E-04
    20 OT DIIS     0.15E+00    2.1     0.00004049     -4349.7445469991 -8.04E-04
    21 OT DIIS     0.15E+00    2.1     0.00005000     -4349.7452823218 -7.35E-04
    22 OT DIIS     0.15E+00    2.1     0.00003967     -4349.7457576862 -4.75E-04
    23 OT SD       0.15E+00    2.1     0.00004394     -4349.7475241593 -1.77E-03
    24 OT DIIS     0.15E+00    2.1     0.00015464     -4349.7472738745  2.50E-04
    25 OT DIIS     0.15E+00    2.2     0.00004007     -4349.7487537219 -1.48E-03
    26 OT DIIS     0.15E+00    2.0     0.00003893     -4349.7487900499 -3.63E-05
    27 OT DIIS     0.15E+00    2.1     0.00003923     -4349.7494568247 -6.67E-04
    28 OT DIIS     0.15E+00    2.1     0.00004155     -4349.7494959517 -3.91E-05
    29 OT DIIS     0.15E+00    2.1     0.00003862     -4349.7507307365 -1.23E-03
    30 OT SD       0.15E+00    2.1     0.00003809     -4349.7525248235 -1.79E-03
    31 OT DIIS     0.15E+00    1.8     0.00012692     -4349.7523324878  1.92E-04
    32 OT DIIS     0.15E+00    2.0     0.00003208     -4349.7526697265 -3.37E-04
    33 OT DIIS     0.15E+00    2.1     0.00003212     -4349.7534828931 -8.13E-04
    34 OT DIIS     0.15E+00    2.1     0.00002831     -4349.7538672230 -3.84E-04
    35 OT DIIS     0.15E+00    2.1     0.00003332     -4349.7540312823 -1.64E-04
    36 OT DIIS     0.15E+00    2.2     0.00003082     -4349.7547680545 -7.37E-04
    37 OT SD       0.15E+00    2.1     0.00003175     -4349.7558375419 -1.07E-03
    38 OT DIIS     0.15E+00    2.1     0.00010816     -4349.7556830044  1.55E-04
    39 OT DIIS     0.15E+00    2.1     0.00002741     -4349.7564130571 -7.30E-04
    40 OT DIIS     0.15E+00    2.1     0.00002774     -4349.7569349912 -5.22E-04
    41 OT SD       0.15E+00    2.1     0.00002400     -4349.7572528540 -3.18E-04
    42 OT DIIS     0.15E+00    2.0     0.00006381     -4349.7572971625 -4.43E-05
    43 OT DIIS     0.15E+00    1.9     0.00002236     -4349.7580042784 -7.07E-04
    44 OT DIIS     0.15E+00    2.2     0.00002283     -4349.7582655002 -2.61E-04
    45 OT DIIS     0.15E+00    1.9     0.00002818     -4349.7583479876 -8.25E-05
    46 OT DIIS     0.15E+00    2.1     0.00002630     -4349.7587151820 -3.67E-04
    47 OT DIIS     0.15E+00    2.1     0.00002126     -4349.7590467056 -3.32E-04
    48 OT DIIS     0.15E+00    1.8     0.00002870     -4349.7591903210 -1.44E-04
    49 OT DIIS     0.15E+00    2.1     0.00001995     -4349.7593439153 -1.54E-04
    50 OT DIIS     0.15E+00    2.1     0.00002180     -4349.7600490795 -7.05E-04

  Leaving inner SCF loop after reaching    50 steps.


  Electronic density on regular grids:      -1483.9999999975        0.0000000025
  Core density on regular grids:             1483.9999999310       -0.0000000690
  Total charge density on r-space grids:       -0.0000000665
  Total charge density g-space grids:          -0.0000000665

  Overlap energy of the core charge distribution:               4.66616222689385
  Self energy of the core charge distribution:             -10331.29031661960289
  Core Hamiltonian energy:                                   2946.19043413133068
  Hartree energy:                                            3854.02831908649205
  Exchange-correlation energy:                               -822.58121237844352
  Dispersion energy:                                           -0.77343552614879

  Total energy:                                             -4349.76004907947936

  outer SCF iter =    4 RMS gradient =   0.22E-04 energy =      -4349.7600490795

  ----------------------------------- OT ---------------------------------------
  Minimizer      : DIIS                : direct inversion
                                         in the iterative subspace
                                         using   7 DIIS vectors
                                         safer DIIS on
  Preconditioner : FULL_SINGLE         : diagonalization based
  Precond_solver : DEFAULT
  stepsize       :    0.15000000                  energy_gap     :    0.20000000
  eps_taylor     :   0.10000E-15                  max_taylor     :             4
  ----------------------------------- OT ---------------------------------------

  Step     Update method      Time    Convergence         Total energy    Change
  ------------------------------------------------------------------------------
     1 OT DIIS     0.15E+00    8.5     0.00002552     -4349.7600355301  1.35E-05
     2 OT DIIS     0.15E+00    2.1     0.00011210     -4349.7598187704  2.17E-04
     3 OT DIIS     0.15E+00    2.1     0.00002033     -4349.7601618251 -3.43E-04
     4 OT DIIS     0.15E+00    1.8     0.00001694     -4349.7601920087 -3.02E-05
     5 OT DIIS     0.15E+00    1.8     0.00001835     -4349.7602726882 -8.07E-05
     6 OT DIIS     0.15E+00    1.9     0.00002227     -4349.7606988311 -4.26E-04
     7 OT DIIS     0.15E+00    2.1     0.00001953     -4349.7612331844 -5.34E-04
     8 OT DIIS     0.15E+00    1.8     0.00001335     -4349.7614558867 -2.23E-04
     9 OT DIIS     0.15E+00    2.0     0.00001928     -4349.7614546118  1.27E-06
    10 OT DIIS     0.15E+00    2.1     0.00001388     -4349.7616612159 -2.07E-04
    11 OT DIIS     0.15E+00    2.0     0.00001383     -4349.7616734917 -1.23E-05
    12 OT DIIS     0.15E+00    2.2     0.00001201     -4349.7617342773 -6.08E-05
    13 OT DIIS     0.15E+00    1.9     0.00001253     -4349.7618719286 -1.38E-04
    14 OT SD       0.15E+00    2.0     0.00001224     -4349.7620255733 -1.54E-04
    15 OT DIIS     0.15E+00    2.1     0.00003766     -4349.7620286158 -3.04E-06
    16 OT DIIS     0.15E+00    2.0     0.00001139     -4349.7621602451 -1.32E-04
    17 OT DIIS     0.15E+00    2.1     0.00001151     -4349.7622854704 -1.25E-04
    18 OT DIIS     0.15E+00    2.1     0.00001126     -4349.7623080387 -2.26E-05
    19 OT DIIS     0.15E+00    2.0     0.00001202     -4349.7623918372 -8.38E-05
    20 OT DIIS     0.15E+00    2.1     0.00001192     -4349.7624041462 -1.23E-05
    21 OT SD       0.15E+00    1.9     0.00001035     -4349.7626600872 -2.56E-04
    22 OT DIIS     0.15E+00    2.2     0.00002444     -4349.7626758968 -1.58E-05
    23 OT DIIS     0.15E+00    1.9     0.00000999     -4349.7627671423 -9.12E-05

  *** SCF run converged in    23 steps ***


  Electronic density on regular grids:      -1483.9999999973        0.0000000027
  Core density on regular grids:             1483.9999999310       -0.0000000690
  Total charge density on r-space grids:       -0.0000000663
  Total charge density g-space grids:          -0.0000000663

  Overlap energy of the core charge distribution:               4.66616222689385
  Self energy of the core charge distribution:             -10331.29031661960289
  Core Hamiltonian energy:                                   2946.14747479567268
  Hartree energy:                                            3854.06324112885613
  Exchange-correlation energy:                               -822.57589314799156
  Dispersion energy:                                           -0.77343552614879

  Total energy:                                             -4349.76276714232154

  outer SCF iter =    5 RMS gradient =   0.10E-04 energy =      -4349.7627671423
  outer SCF loop converged in   5 iterations or  223 steps


 ENERGY| Total FORCE_EVAL ( QS ) energy [a.u.]:            -4349.762827482275497

 --------  Informations at step =     0 ------------
  Optimization Method        =                 BFGS
  Total Energy               =     -4349.7628274823
  Used time                  =              485.384
 ---------------------------------------------------

 --------------------------
 OPTIMIZATION STEP:      1
 --------------------------

  Step is scaled; Scaling factor =  0.11094

 Number of electrons:                                                       1484
 Number of occupied orbitals:                                                742
 Number of molecular orbitals:                                               742

 Number of orbital functions:                                               3388
 Number of independent orbital functions:                                   3388

 Extrapolation method: ASPC


 SCF WAVEFUNCTION OPTIMIZATION

  ----------------------------------- OT ---------------------------------------
  Minimizer      : DIIS                : direct inversion
                                         in the iterative subspace
                                         using   7 DIIS vectors
                                         safer DIIS on
  Preconditioner : FULL_SINGLE         : diagonalization based
  Precond_solver : DEFAULT
  stepsize       :    0.15000000                  energy_gap     :    0.20000000
  eps_taylor     :   0.10000E-15                  max_taylor     :             4
  ----------------------------------- OT ---------------------------------------

  Step     Update method      Time    Convergence         Total energy    Change
  ------------------------------------------------------------------------------
     1 OT DIIS     0.15E+00    5.9     0.00788551     -4403.3903406142 -4.40E+03
     2 OT DIIS     0.15E+00    2.1     0.01822750     -4396.9267885580  6.46E+00
     3 OT DIIS     0.15E+00    2.0     0.00942219     -4407.2155684779 -1.03E+01
     4 OT DIIS     0.15E+00    2.2     0.00510375     -4410.0434254846 -2.83E+00
     5 OT DIIS     0.15E+00    2.2     0.00336479     -4410.8057484189 -7.62E-01
     6 OT DIIS     0.15E+00    1.9     0.00218604     -4411.0958349436 -2.90E-01
     7 OT DIIS     0.15E+00    2.3     0.00134965     -4411.2279290378 -1.32E-01
     8 OT DIIS     0.15E+00    1.9     0.00093809     -4411.2881975032 -6.03E-02
     9 OT DIIS     0.15E+00    2.1     0.00068406     -4411.3200875231 -3.19E-02
    10 OT DIIS     0.15E+00    1.8     0.00047746     -4411.3440081635 -2.39E-02
    11 OT DIIS     0.15E+00    2.1     0.00039280     -4411.3605928017 -1.66E-02
    12 OT DIIS     0.15E+00    2.2     0.00040539     -4411.3733099272 -1.27E-02
    13 OT DIIS     0.15E+00    2.2     0.00040917     -4411.3848564126 -1.15E-02
    14 OT DIIS     0.15E+00    2.2     0.00038117     -4411.3905220917 -5.67E-03
    15 OT DIIS     0.15E+00    2.2     0.00035236     -4411.3951871231 -4.67E-03
    16 OT DIIS     0.15E+00    2.1     0.00030201     -4411.4007482367 -5.56E-03
    17 OT DIIS     0.15E+00    2.2     0.00026663     -4411.4057665045 -5.02E-03
    18 OT DIIS     0.15E+00    2.1     0.00024347     -4411.4072759614 -1.51E-03
    19 OT DIIS     0.15E+00    2.0     0.00018894     -4411.4096892445 -2.41E-03
    20 OT DIIS     0.15E+00    2.1     0.00018355     -4411.4120787193 -2.39E-03
    21 OT DIIS     0.15E+00    1.9     0.00016163     -4411.4142769756 -2.20E-03
    22 OT DIIS     0.15E+00    2.0     0.00015954     -4411.4157192338 -1.44E-03
    23 OT DIIS     0.15E+00    2.2     0.00015444     -4411.4173408090 -1.62E-03
    24 OT DIIS     0.15E+00    2.2     0.00013996     -4411.4190673263 -1.73E-03
    25 OT DIIS     0.15E+00    2.2     0.00013771     -4411.4210991879 -2.03E-03
    26 OT DIIS     0.15E+00    2.1     0.00014577     -4411.4225595892 -1.46E-03
    27 OT DIIS     0.15E+00    2.1     0.00013485     -4411.4233838819 -8.24E-04
    28 OT DIIS     0.15E+00    2.1     0.00013539     -4411.4248216524 -1.44E-03
    29 OT DIIS     0.15E+00    2.1     0.00012433     -4411.4255294132 -7.08E-04
    30 OT DIIS     0.15E+00    2.1     0.00012022     -4411.4262755618 -7.46E-04
    31 OT DIIS     0.15E+00    2.1     0.00010701     -4411.4270182522 -7.43E-04
    32 OT DIIS     0.15E+00    1.9     0.00009449     -4411.4276912539 -6.73E-04
    33 OT DIIS     0.15E+00    2.0     0.00008461     -4411.4285148029 -8.24E-04
    34 OT DIIS     0.15E+00    2.0     0.00008594     -4411.4294265794 -9.12E-04
    35 OT DIIS     0.15E+00    1.9     0.00008737     -4411.4300326102 -6.06E-04
    36 OT DIIS     0.15E+00    2.1     0.00008816     -4411.4309681108 -9.36E-04
    37 OT DIIS     0.15E+00    1.9     0.00009412     -4411.4314097443 -4.42E-04
    38 OT DIIS     0.15E+00    2.1     0.00009584     -4411.4320572959 -6.48E-04
    39 OT DIIS     0.15E+00    2.1     0.00009101     -4411.4326022704 -5.45E-04
    40 OT DIIS     0.15E+00    2.1     0.00008495     -4411.4329037524 -3.01E-04
    41 OT DIIS     0.15E+00    1.9     0.00007188     -4411.4332490441 -3.45E-04
    42 OT DIIS     0.15E+00    2.2     0.00006685     -4411.4338221261 -5.73E-04
    43 OT DIIS     0.15E+00    2.1     0.00006390     -4411.4341517153 -3.30E-04
    44 OT DIIS     0.15E+00    1.9     0.00006129     -4411.4346447624 -4.93E-04
    45 OT DIIS     0.15E+00    2.2     0.00006427     -4411.4349720199 -3.27E-04
    46 OT DIIS     0.15E+00    1.9     0.00006601     -4411.4354556097 -4.84E-04
    47 OT DIIS     0.15E+00    2.2     0.00006776     -4411.4359355250 -4.80E-04
    48 OT DIIS     0.15E+00    2.1     0.00006978     -4411.4362487493 -3.13E-04
    49 OT DIIS     0.15E+00    2.1     0.00006479     -4411.4364127729 -1.64E-04
    50 OT DIIS     0.15E+00    2.1     0.00006075     -4411.4368516818 -4.39E-04

  Leaving inner SCF loop after reaching    50 steps.


  Electronic density on regular grids:      -1483.9999999734        0.0000000266
  Core density on regular grids:             1483.9999999311       -0.0000000689
  Total charge density on r-space grids:       -0.0000000423
  Total charge density g-space grids:          -0.0000000423

  Overlap energy of the core charge distribution:               0.30364425801467
  Self energy of the core charge distribution:             -10331.29031661960289
  Core Hamiltonian energy:                                   2865.52527301912551
  Hartree energy:                                            3869.18126091097702
  Exchange-correlation energy:                               -814.38512516714241
  Dispersion energy:                                           -0.77158808316064

  Total energy:                                             -4411.43685168178945

  outer SCF iter =    1 RMS gradient =   0.61E-04 energy =      -4411.4368516818

  ----------------------------------- OT ---------------------------------------
  Minimizer      : DIIS                : direct inversion
                                         in the iterative subspace
                                         using   7 DIIS vectors
                                         safer DIIS on
  Preconditioner : FULL_SINGLE         : diagonalization based
  Precond_solver : DEFAULT
  stepsize       :    0.15000000                  energy_gap     :    0.20000000
  eps_taylor     :   0.10000E-15                  max_taylor     :             4
  ----------------------------------- OT ---------------------------------------

  Step     Update method      Time    Convergence         Total energy    Change
  ------------------------------------------------------------------------------
     1 OT DIIS     0.15E+00    8.8     0.00005796     -4411.4371095392 -2.58E-04
     2 OT DIIS     0.15E+00    2.0     0.00016669     -4411.4369830145  1.27E-04
     3 OT DIIS     0.15E+00    2.1     0.00005327     -4411.4379527725 -9.70E-04
     4 OT DIIS     0.15E+00    2.1     0.00004372     -4411.4381726973 -2.20E-04
     5 OT DIIS     0.15E+00    2.1     0.00005136     -4411.4389132343 -7.41E-04
     6 OT DIIS     0.15E+00    1.9     0.00004996     -4411.4406958981 -1.78E-03
     7 OT DIIS     0.15E+00    1.9     0.00003950     -4411.4420240801 -1.33E-03
     8 OT DIIS     0.15E+00    2.1     0.00003680     -4411.4429302991 -9.06E-04
     9 OT DIIS     0.15E+00    2.0     0.00003374     -4411.4438190548 -8.89E-04
    10 OT DIIS     0.15E+00    2.2     0.00002791     -4411.4442575309 -4.38E-04
    11 OT DIIS     0.15E+00    2.0     0.00002739     -4411.4446090742 -3.52E-04
    12 OT DIIS     0.15E+00    2.2     0.00002471     -4411.4450395583 -4.30E-04
    13 OT DIIS     0.15E+00    2.0     0.00002270     -4411.4452912242 -2.52E-04
    14 OT DIIS     0.15E+00    1.9     0.00002214     -4411.4455946385 -3.03E-04
    15 OT DIIS     0.15E+00    2.2     0.00002106     -4411.4458856230 -2.91E-04
    16 OT DIIS     0.15E+00    2.1     0.00002065     -4411.4461702680 -2.85E-04
    17 OT DIIS     0.15E+00    1.8     0.00002071     -4411.4464953600 -3.25E-04
    18 OT DIIS     0.15E+00    1.9     0.00001995     -4411.4467374947 -2.42E-04
    19 OT DIIS     0.15E+00    1.9     0.00001890     -4411.4470003947 -2.63E-04
    20 OT DIIS     0.15E+00    1.9     0.00001806     -4411.4472842946 -2.84E-04
    21 OT DIIS     0.15E+00    2.1     0.00001787     -4411.4474834942 -1.99E-04
    22 OT DIIS     0.15E+00    2.1     0.00001749     -4411.4477590048 -2.76E-04
    23 OT DIIS     0.15E+00    1.9     0.00001674     -4411.4479905271 -2.32E-04
    24 OT DIIS     0.15E+00    2.2     0.00001673     -4411.4481959767 -2.05E-04
    25 OT DIIS     0.15E+00    2.1     0.00001618     -4411.4484217981 -2.26E-04
    26 OT DIIS     0.15E+00    2.2     0.00001544     -4411.4486015188 -1.80E-04
    27 OT DIIS     0.15E+00    2.1     0.00001513     -4411.4487905718 -1.89E-04
    28 OT DIIS     0.15E+00    2.1     0.00001538     -4411.4490378614 -2.47E-04
    29 OT DIIS     0.15E+00    1.9     0.00001434     -4411.4491793975 -1.42E-04
    30 OT DIIS     0.15E+00    2.2     0.00001428     -4411.4493749590 -1.96E-04
    31 OT DIIS     0.15E+00    1.9     0.00001385     -4411.4495508637 -1.76E-04
    32 OT DIIS     0.15E+00    2.2     0.00001334     -4411.4496939493 -1.43E-04
    33 OT DIIS     0.15E+00    1.9     0.00001392     -4411.4498604237 -1.66E-04
    34 OT DIIS     0.15E+00    2.3     0.00001309     -4411.4500343613 -1.74E-04
    35 OT DIIS     0.15E+00    1.9     0.00001260     -4411.4501873563 -1.53E-04
    36 OT DIIS     0.15E+00    2.1     0.00001266     -4411.4503221788 -1.35E-04
    37 OT DIIS     0.15E+00    1.8     0.00001275     -4411.4504551366 -1.33E-04
    38 OT DIIS     0.15E+00    2.1     0.00001211     -4411.4505886003 -1.33E-04
    39 OT DIIS     0.15E+00    1.9     0.00001199     -4411.4507394723 -1.51E-04
    40 OT DIIS     0.15E+00    2.1     0.00001206     -4411.4508821194 -1.43E-04
    41 OT DIIS     0.15E+00    2.1     0.00001161     -4411.4509675940 -8.55E-05
    42 OT DIIS     0.15E+00    2.1     0.00001148     -4411.4511190510 -1.51E-04
    43 OT DIIS     0.15E+00    2.2     0.00001117     -4411.4511996071 -8.06E-05
    44 OT DIIS     0.15E+00    2.1     0.00001158     -4411.4513226505 -1.23E-04
    45 OT DIIS     0.15E+00    1.8     0.00001185     -4411.4513642762 -4.16E-05
    46 OT DIIS     0.15E+00    2.2     0.00001051     -4411.4514713141 -1.07E-04
    47 OT DIIS     0.15E+00    2.1     0.00001077     -4411.4516157647 -1.44E-04
    48 OT DIIS     0.15E+00    2.1     0.00001187     -4411.4517093959 -9.36E-05
    49 OT DIIS     0.15E+00    1.9     0.00001013     -4411.4517860703 -7.67E-05
    50 OT DIIS     0.15E+00    2.1     0.00001211     -4411.4518328392 -4.68E-05

  Leaving inner SCF loop after reaching    50 steps.


  Electronic density on regular grids:      -1483.9999999734        0.0000000266
  Core density on regular grids:             1483.9999999311       -0.0000000689
  Total charge density on r-space grids:       -0.0000000424
  Total charge density g-space grids:          -0.0000000423

  Overlap energy of the core charge distribution:               0.30364425801467
  Self energy of the core charge distribution:             -10331.29031661960289
  Core Hamiltonian energy:                                   2865.44933840305339
  Hartree energy:                                            3869.25845337981491
  Exchange-correlation energy:                               -814.40136417733663
  Dispersion energy:                                           -0.77158808316064

  Total energy:                                             -4411.45183283921779

  outer SCF iter =    2 RMS gradient =   0.12E-04 energy =      -4411.4518328392

  ----------------------------------- OT ---------------------------------------
  Minimizer      : DIIS                : direct inversion
                                         in the iterative subspace
                                         using   7 DIIS vectors
                                         safer DIIS on
  Preconditioner : FULL_SINGLE         : diagonalization based
  Precond_solver : DEFAULT
  stepsize       :    0.15000000                  energy_gap     :    0.20000000
  eps_taylor     :   0.10000E-15                  max_taylor     :             4
  ----------------------------------- OT ---------------------------------------

  Step     Update method      Time    Convergence         Total energy    Change
  ------------------------------------------------------------------------------
     1 OT DIIS     0.15E+00    8.7     0.00001033     -4411.4519382822 -1.05E-04
     2 OT DIIS     0.15E+00    1.9     0.00002796     -4411.4519473849 -9.10E-06
     3 OT DIIS     0.15E+00    2.1     0.00000937     -4411.4519727954 -2.54E-05

  *** SCF run converged in     3 steps ***


  Electronic density on regular grids:      -1483.9999999734        0.0000000266
  Core density on regular grids:             1483.9999999311       -0.0000000689
  Total charge density on r-space grids:       -0.0000000424
  Total charge density g-space grids:          -0.0000000424

  Overlap energy of the core charge distribution:               0.30364425801467
  Self energy of the core charge distribution:             -10331.29031661960289
  Core Hamiltonian energy:                                   2865.45043751013327
  Hartree energy:                                            3869.25738030100911
  Exchange-correlation energy:                               -814.40153016181864
  Dispersion energy:                                           -0.77158808316064

  Total energy:                                             -4411.45197279542572

  outer SCF iter =    3 RMS gradient =   0.94E-05 energy =      -4411.4519727954
  outer SCF loop converged in   3 iterations or  103 steps


 ENERGY| Total FORCE_EVAL ( QS ) energy [a.u.]:            -4411.451983048670627

 --------  Informations at step =     1 ------------
  Optimization Method        =                 BFGS
  Total Energy               =     -4411.4519830487
  Real energy change         =       -61.6891555664
  Predicted change in energy =      -118.1953470498
  Scaling factor             =         0.1109415125
  Step size                  =         0.4724315332
  Trust radius               =         0.4724315332
  Decrease in energy         =                  YES
  Used time                  =              234.187

  Convergence check :
  Max. step size             =         0.4724315332
  Conv. limit for step size  =         0.0030000000
  Convergence in step size   =                   NO
  RMS step size              =         0.0651449607
  Conv. limit for RMS step   =         0.0015000000
  Convergence in RMS step    =                   NO
  Max. gradient              =         7.6387342482
  Conv. limit for gradients  =         0.0004500000
  Conv. for gradients        =                   NO
  RMS gradient               =         1.2789261283
  Conv. limit for RMS grad.  =         0.0003000000
  Conv. for gradients        =                   NO
 ---------------------------------------------------

 --------------------------
 OPTIMIZATION STEP:      2
 --------------------------

  Step is scaled; Scaling factor =  0.16132

 Number of electrons:                                                       1484
 Number of occupied orbitals:                                                742
 Number of molecular orbitals:                                               742

 Number of orbital functions:                                               3388
 Number of independent orbital functions:                                   3388

 Extrapolation method: ASPC


 SCF WAVEFUNCTION OPTIMIZATION

  ----------------------------------- OT ---------------------------------------
  Minimizer      : DIIS                : direct inversion
                                         in the iterative subspace
                                         using   7 DIIS vectors
                                         safer DIIS on
  Preconditioner : FULL_SINGLE         : diagonalization based
  Precond_solver : DEFAULT
  stepsize       :    0.15000000                  energy_gap     :    0.20000000
  eps_taylor     :   0.10000E-15                  max_taylor     :             4
  ----------------------------------- OT ---------------------------------------

  Step     Update method      Time    Convergence         Total energy    Change
  ------------------------------------------------------------------------------
     1 OT DIIS     0.15E+00    6.2     0.00688873     -4421.5342776668 -4.42E+03
     2 OT DIIS     0.15E+00    2.1     0.01453190     -4414.9766485397  6.56E+00
     3 OT DIIS     0.15E+00    2.3     0.00754115     -4423.7958133649 -8.82E+00
     4 OT DIIS     0.15E+00    2.2     0.00385875     -4425.9191497373 -2.12E+00
     5 OT DIIS     0.15E+00    2.0     0.00265906     -4426.3442296943 -4.25E-01
     6 OT DIIS     0.15E+00    2.0     0.00167549     -4426.5241021001 -1.80E-01
     7 OT DIIS     0.15E+00    1.9     0.00114937     -4426.5946230319 -7.05E-02
     8 OT DIIS     0.15E+00    2.0     0.00066565     -4426.6370132894 -4.24E-02
     9 OT DIIS     0.15E+00    2.0     0.00043075     -4426.6512203972 -1.42E-02
    10 OT DIIS     0.15E+00    2.0     0.00034649     -4426.6598438656 -8.62E-03
    11 OT DIIS     0.15E+00    2.0     0.00024354     -4426.6668232850 -6.98E-03
    12 OT DIIS     0.15E+00    2.2     0.00024102     -4426.6693792938 -2.56E-03
    13 OT DIIS     0.15E+00    2.0     0.00023873     -4426.6727098964 -3.33E-03
    14 OT DIIS     0.15E+00    2.2     0.00021517     -4426.6753580000 -2.65E-03
    15 OT DIIS     0.15E+00    2.1     0.00018408     -4426.6776029132 -2.24E-03
    16 OT DIIS     0.15E+00    2.1     0.00016350     -4426.6794615833 -1.86E-03
    17 OT DIIS     0.15E+00    2.0     0.00015942     -4426.6811206776 -1.66E-03
    18 OT DIIS     0.15E+00    2.1     0.00014825     -4426.6826923361 -1.57E-03
    19 OT DIIS     0.15E+00    2.1     0.00013064     -4426.6831491973 -4.57E-04
    20 OT DIIS     0.15E+00    2.1     0.00012152     -4426.6841483786 -9.99E-04
    21 OT DIIS     0.15E+00    2.0     0.00011446     -4426.6851455973 -9.97E-04
    22 OT DIIS     0.15E+00    2.0     0.00010332     -4426.6859422019 -7.97E-04
    23 OT DIIS     0.15E+00    2.2     0.00009466     -4426.6865639147 -6.22E-04
    24 OT DIIS     0.15E+00    2.2     0.00008615     -4426.6872583103 -6.94E-04
    25 OT DIIS     0.15E+00    2.2     0.00008445     -4426.6882543834 -9.96E-04
    26 OT DIIS     0.15E+00    2.1     0.00008849     -4426.6890326588 -7.78E-04
    27 OT DIIS     0.15E+00    2.0     0.00009153     -4426.6892342656 -2.02E-04
    28 OT DIIS     0.15E+00    2.1     0.00008953     -4426.6897983818 -5.64E-04
    29 OT DIIS     0.15E+00    2.2     0.00008442     -4426.6903023186 -5.04E-04
    30 OT DIIS     0.15E+00    2.1     0.00007763     -4426.6907257878 -4.23E-04
    31 OT DIIS     0.15E+00    2.3     0.00007033     -4426.6909704240 -2.45E-04
    32 OT DIIS     0.15E+00    2.2     0.00006058     -4426.6912567948 -2.86E-04
    33 OT DIIS     0.15E+00    2.2     0.00005522     -4426.6917211696 -4.64E-04
    34 OT DIIS     0.15E+00    2.0     0.00005490     -4426.6920948738 -3.74E-04
    35 OT DIIS     0.15E+00    2.1     0.00005840     -4426.6923127970 -2.18E-04
    36 OT DIIS     0.15E+00    2.0     0.00005989     -4426.6926890481 -3.76E-04
    37 OT DIIS     0.15E+00    1.9     0.00005928     -4426.6929796771 -2.91E-04
    38 OT DIIS     0.15E+00    2.1     0.00005889     -4426.6932552859 -2.76E-04
    39 OT DIIS     0.15E+00    2.2     0.00005725     -4426.6934705164 -2.15E-04
    40 OT DIIS     0.15E+00    2.1     0.00005203     -4426.6936377815 -1.67E-04
    41 OT DIIS     0.15E+00    2.1     0.00004658     -4426.6939102532 -2.72E-04
    42 OT DIIS     0.15E+00    2.1     0.00004374     -4426.6940878760 -1.78E-04
    43 OT DIIS     0.15E+00    2.2     0.00004396     -4426.6942374709 -1.50E-04
    44 OT DIIS     0.15E+00    2.2     0.00004253     -4426.6944339581 -1.96E-04
    45 OT DIIS     0.15E+00    2.1     0.00004127     -4426.6945954634 -1.62E-04
    46 OT DIIS     0.15E+00    2.1     0.00004154     -4426.6947756116 -1.80E-04
    47 OT DIIS     0.15E+00    2.1     0.00004137     -4426.6949595031 -1.84E-04
    48 OT DIIS     0.15E+00    2.0     0.00004115     -4426.6951253338 -1.66E-04
    49 OT DIIS     0.15E+00    2.2     0.00003892     -4426.6953085983 -1.83E-04
    50 OT DIIS     0.15E+00    2.1     0.00003792     -4426.6954212094 -1.13E-04

  Leaving inner SCF loop after reaching    50 steps.


  Electronic density on regular grids:      -1483.9999999857        0.0000000143
  Core density on regular grids:             1483.9999999309       -0.0000000691
  Total charge density on r-space grids:       -0.0000000547
  Total charge density g-space grids:          -0.0000000547

  Overlap energy of the core charge distribution:               0.08802318145383
  Self energy of the core charge distribution:             -10331.29031661960289
  Core Hamiltonian energy:                                   2826.05920556436377
  Hartree energy:                                            3888.58099779626446
  Exchange-correlation energy:                               -809.36564767396032
  Dispersion energy:                                           -0.76768345796332

  Total energy:                                             -4426.69542120944516

  outer SCF iter =    1 RMS gradient =   0.38E-04 energy =      -4426.6954212094

  ----------------------------------- OT ---------------------------------------
  Minimizer      : DIIS                : direct inversion
                                         in the iterative subspace
                                         using   7 DIIS vectors
                                         safer DIIS on
  Preconditioner : FULL_SINGLE         : diagonalization based
  Precond_solver : DEFAULT
  stepsize       :    0.15000000                  energy_gap     :    0.20000000
  eps_taylor     :   0.10000E-15                  max_taylor     :             4
  ----------------------------------- OT ---------------------------------------

  Step     Update method      Time    Convergence         Total energy    Change
  ------------------------------------------------------------------------------
     1 OT DIIS     0.15E+00    8.7     0.00003827     -4426.6955720586 -1.51E-04
     2 OT DIIS     0.15E+00    2.2     0.00013067     -4426.6953320504  2.40E-04
     3 OT DIIS     0.15E+00    1.9     0.00003108     -4426.6958938802 -5.62E-04
     4 OT DIIS     0.15E+00    2.1     0.00002630     -4426.6959745148 -8.06E-05
     5 OT DIIS     0.15E+00    2.0     0.00003161     -4426.6963127223 -3.38E-04
     6 OT DIIS     0.15E+00    2.1     0.00003466     -4426.6976168888 -1.30E-03
     7 OT DIIS     0.15E+00    1.9     0.00002170     -4426.6983213365 -7.04E-04
     8 OT DIIS     0.15E+00    1.9     0.00001819     -4426.6985411067 -2.20E-04
     9 OT DIIS     0.15E+00    2.3     0.00001905     -4426.6987778081 -2.37E-04
    10 OT DIIS     0.15E+00    1.9     0.00001626     -4426.6989087892 -1.31E-04
    11 OT DIIS     0.15E+00    1.9     0.00001577     -4426.6990217372 -1.13E-04
    12 OT DIIS     0.15E+00    2.1     0.00001530     -4426.6991763937 -1.55E-04
    13 OT DIIS     0.15E+00    2.2     0.00001425     -4426.6993563557 -1.80E-04
    14 OT DIIS     0.15E+00    2.0     0.00001376     -4426.6994782219 -1.22E-04
    15 OT DIIS     0.15E+00    2.1     0.00001366     -4426.6996248929 -1.47E-04
    16 OT DIIS     0.15E+00    2.1     0.00001315     -4426.6997838948 -1.59E-04
    17 OT DIIS     0.15E+00    2.2     0.00001306     -4426.6999284193 -1.45E-04
    18 OT DIIS     0.15E+00    2.2     0.00001342     -4426.7000800711 -1.52E-04
    19 OT DIIS     0.15E+00    2.1     0.00001255     -4426.7001932208 -1.13E-04
    20 OT DIIS     0.15E+00    2.2     0.00001230     -4426.7002763044 -8.31E-05
    21 OT DIIS     0.15E+00    2.0     0.00001214     -4426.7004107861 -1.34E-04
    22 OT DIIS     0.15E+00    1.9     0.00001129     -4426.7005014558 -9.07E-05
    23 OT DIIS     0.15E+00    2.1     0.00001096     -4426.7006168922 -1.15E-04
    24 OT DIIS     0.15E+00    2.0     0.00001088     -4426.7007335902 -1.17E-04
    25 OT DIIS     0.15E+00    2.2     0.00001053     -4426.7008196296 -8.60E-05
    26 OT DIIS     0.15E+00    1.8     0.00001090     -4426.7008671855 -4.76E-05
    27 OT DIIS     0.15E+00    2.1     0.00001083     -4426.7009751305 -1.08E-04
    28 OT DIIS     0.15E+00    2.1     0.00001010     -4426.7010567459 -8.16E-05
    29 OT DIIS     0.15E+00    2.2     0.00001001     -4426.7011015768 -4.48E-05
    30 OT DIIS     0.15E+00    2.2     0.00001008     -4426.7011998877 -9.83E-05
    31 OT DIIS     0.15E+00    1.9     0.00000970     -4426.7012482493 -4.84E-05

  *** SCF run converged in    31 steps ***


  Electronic density on regular grids:      -1483.9999999856        0.0000000144
  Core density on regular grids:             1483.9999999309       -0.0000000691
  Total charge density on r-space grids:       -0.0000000547
  Total charge density g-space grids:          -0.0000000547

  Overlap energy of the core charge distribution:               0.08802318145383
  Self energy of the core charge distribution:             -10331.29031661960289
  Core Hamiltonian energy:                                   2825.97574381541745
  Hartree energy:                                            3888.65079200979835
  Exchange-correlation energy:                               -809.35780717842977
  Dispersion energy:                                           -0.76768345796332

  Total energy:                                             -4426.70124824932645

  outer SCF iter =    2 RMS gradient =   0.97E-05 energy =      -4426.7012482493
  outer SCF loop converged in   2 iterations or   81 steps


 ENERGY| Total FORCE_EVAL ( QS ) energy [a.u.]:            -4426.701330041491019

 --------  Informations at step =     2 ------------
  Optimization Method        =                 BFGS
  Total Energy               =     -4426.7013300415
  Real energy change         =       -15.2493469928
  Predicted change in energy =       -14.8313404134
  Scaling factor             =         0.1613206978
  Step size                  =         0.4724315332
  Trust radius               =         0.4724315332
  Decrease in energy         =                  YES
  Used time                  =              186.423

  Convergence check :
  Max. step size             =         0.4724315332
  Conv. limit for step size  =         0.0030000000
  Convergence in step size   =                   NO
  RMS step size              =         0.0817185236
  Conv. limit for RMS step   =         0.0015000000
  Convergence in RMS step    =                   NO
  Max. gradient              =         4.8538205887
  Conv. limit for gradients  =         0.0004500000
  Conv. for gradients        =                   NO
  RMS gradient               =         0.7913404889
  Conv. limit for RMS grad.  =         0.0003000000
  Conv. for gradients        =                   NO
 ---------------------------------------------------

 --------------------------
 OPTIMIZATION STEP:      3
 --------------------------

  Step is scaled; Scaling factor =  0.00378

 Number of electrons:                                                       1484
 Number of occupied orbitals:                                                742
 Number of molecular orbitals:                                               742

 Number of orbital functions:                                               3388
 Number of independent orbital functions:                                   3388

 Extrapolation method: ASPC


 SCF WAVEFUNCTION OPTIMIZATION

  ----------------------------------- OT ---------------------------------------
  Minimizer      : DIIS                : direct inversion
                                         in the iterative subspace
                                         using   7 DIIS vectors
                                         safer DIIS on
  Preconditioner : FULL_SINGLE         : diagonalization based
  Precond_solver : DEFAULT
  stepsize       :    0.15000000                  energy_gap     :    0.20000000
  eps_taylor     :   0.10000E-15                  max_taylor     :             4
  ----------------------------------- OT ---------------------------------------

  Step     Update method      Time    Convergence         Total energy    Change
  ------------------------------------------------------------------------------
     1 OT DIIS     0.15E+00    6.1     0.00524055     -4432.0691825904 -4.43E+03
     2 OT DIIS     0.15E+00    2.4     0.01420991     -4425.6881839363  6.38E+00
     3 OT DIIS     0.15E+00    1.9     0.00470286     -4433.7525179868 -8.06E+00
     4 OT DIIS     0.15E+00    2.1     0.00353981     -4434.2764597691 -5.24E-01
     5 OT DIIS     0.15E+00    2.4     0.00181386     -4434.6417577951 -3.65E-01
     6 OT DIIS     0.15E+00    2.0     0.00120631     -4434.7279604561 -8.62E-02
     7 OT DIIS     0.15E+00    2.0     0.00074768     -4434.7707480291 -4.28E-02
     8 OT DIIS     0.15E+00    2.0     0.00048731     -4434.7891737824 -1.84E-02
     9 OT DIIS     0.15E+00    2.1     0.00034592     -4434.7974974900 -8.32E-03
    10 OT DIIS     0.15E+00    2.0     0.00026548     -4434.8038784720 -6.38E-03
    11 OT DIIS     0.15E+00    2.0     0.00019718     -4434.8078769543 -4.00E-03
    12 OT DIIS     0.15E+00    2.3     0.00022853     -4434.8094048368 -1.53E-03
    13 OT DIIS     0.15E+00    2.1     0.00018698     -4434.8118696250 -2.46E-03
    14 OT DIIS     0.15E+00    2.2     0.00017866     -4434.8135777450 -1.71E-03
    15 OT DIIS     0.15E+00    2.4     0.00015418     -4434.8149086684 -1.33E-03
    16 OT DIIS     0.15E+00    2.2     0.00013468     -4434.8160739571 -1.17E-03
    17 OT DIIS     0.15E+00    2.1     0.00012977     -4434.8171619267 -1.09E-03
    18 OT DIIS     0.15E+00    2.2     0.00011048     -4434.8180476568 -8.86E-04
    19 OT DIIS     0.15E+00    2.1     0.00010443     -4434.8186097176 -5.62E-04
    20 OT DIIS     0.15E+00    2.1     0.00010158     -4434.8191385315 -5.29E-04
    21 OT DIIS     0.15E+00    2.0     0.00009087     -4434.8197532792 -6.15E-04
    22 OT DIIS     0.15E+00    2.3     0.00008335     -4434.8203420313 -5.89E-04
    23 OT DIIS     0.15E+00    2.2     0.00007861     -4434.8208059055 -4.64E-04
    24 OT DIIS     0.15E+00    2.1     0.00007413     -4434.8212310802 -4.25E-04
    25 OT DIIS     0.15E+00    2.3     0.00007141     -4434.8218425031 -6.11E-04
    26 OT DIIS     0.15E+00    2.0     0.00007088     -4434.8222539470 -4.11E-04
    27 OT DIIS     0.15E+00    2.2     0.00007088     -4434.8226172128 -3.63E-04
    28 OT DIIS     0.15E+00    2.1     0.00007510     -4434.8228957479 -2.79E-04
    29 OT DIIS     0.15E+00    2.1     0.00006857     -4434.8231241455 -2.28E-04
    30 OT DIIS     0.15E+00    2.1     0.00006018     -4434.8234548205 -3.31E-04
    31 OT DIIS     0.15E+00    2.1     0.00005629     -4434.8236806948 -2.26E-04
    32 OT DIIS     0.15E+00    2.0     0.00005114     -4434.8238886122 -2.08E-04
    33 OT DIIS     0.15E+00    2.1     0.00004777     -4434.8241845703 -2.96E-04
    34 OT DIIS     0.15E+00    2.1     0.00004706     -4434.8244099344 -2.25E-04
    35 OT DIIS     0.15E+00    2.4     0.00004709     -4434.8246673416 -2.57E-04
    36 OT DIIS     0.15E+00    2.3     0.00005236     -4434.8248988689 -2.32E-04
    37 OT DIIS     0.15E+00    2.0     0.00005250     -4434.8250490506 -1.50E-04
    38 OT DIIS     0.15E+00    1.9     0.00004798     -4434.8252471300 -1.98E-04
    39 OT DIIS     0.15E+00    1.9     0.00004695     -4434.8254274835 -1.80E-04
    40 OT DIIS     0.15E+00    2.1     0.00004334     -4434.8255554046 -1.28E-04
    41 OT DIIS     0.15E+00    2.0     0.00004000     -4434.8257199070 -1.65E-04
    42 OT DIIS     0.15E+00    2.0     0.00003749     -4434.8258444074 -1.25E-04
    43 OT DIIS     0.15E+00    2.0     0.00003578     -4434.8259962651 -1.52E-04
    44 OT DIIS     0.15E+00    1.9     0.00003740     -4434.8261538840 -1.58E-04
    45 OT DIIS     0.15E+00    2.1     0.00003781     -4434.8262559068 -1.02E-04
    46 OT DIIS     0.15E+00    2.1     0.00003627     -4434.8263877046 -1.32E-04
    47 OT DIIS     0.15E+00    2.3     0.00003612     -4434.8265416620 -1.54E-04
    48 OT DIIS     0.15E+00    1.9     0.00003605     -4434.8266708934 -1.29E-04
    49 OT DIIS     0.15E+00    2.1     0.00003500     -4434.8267803750 -1.09E-04
    50 OT DIIS     0.15E+00    1.8     0.00003349     -4434.8268674264 -8.71E-05

  Leaving inner SCF loop after reaching    50 steps.


  Electronic density on regular grids:      -1483.9999999860        0.0000000140
  Core density on regular grids:             1483.9999999310       -0.0000000690
  Total charge density on r-space grids:       -0.0000000549
  Total charge density g-space grids:          -0.0000000549

  Overlap energy of the core charge distribution:               0.03022282504787
  Self energy of the core charge distribution:             -10331.29031661960289
  Core Hamiltonian energy:                                   2799.89353568793103
  Hartree energy:                                            3903.04093783400549
  Exchange-correlation energy:                               -805.73588811356876
  Dispersion energy:                                           -0.76535904025482

  Total energy:                                             -4434.82686742644273

  outer SCF iter =    1 RMS gradient =   0.33E-04 energy =      -4434.8268674264

  ----------------------------------- OT ---------------------------------------
  Minimizer      : DIIS                : direct inversion
                                         in the iterative subspace
                                         using   7 DIIS vectors
                                         safer DIIS on
  Preconditioner : FULL_SINGLE         : diagonalization based
  Precond_solver : DEFAULT
  stepsize       :    0.15000000                  energy_gap     :    0.20000000
  eps_taylor     :   0.10000E-15                  max_taylor     :             4
  ----------------------------------- OT ---------------------------------------

  Step     Update method      Time    Convergence         Total energy    Change
  ------------------------------------------------------------------------------
     1 OT DIIS     0.15E+00    8.6     0.00003124     -4434.8269697619 -1.02E-04
     2 OT DIIS     0.15E+00    1.9     0.00009219     -4434.8269271010  4.27E-05
     3 OT DIIS     0.15E+00    2.1     0.00002637     -4434.8272266044 -3.00E-04
     4 OT DIIS     0.15E+00    2.1     0.00002363     -4434.8272916074 -6.50E-05
     5 OT DIIS     0.15E+00    1.9     0.00002993     -4434.8276880685 -3.96E-04
     6 OT DIIS     0.15E+00    1.9     0.00003063     -4434.8289600494 -1.27E-03
     7 OT DIIS     0.15E+00    2.1     0.00001739     -4434.8294234047 -4.63E-04
     8 OT DIIS     0.15E+00    2.1     0.00001665     -4434.8295757896 -1.52E-04
     9 OT DIIS     0.15E+00    2.1     0.00001573     -4434.8297567791 -1.81E-04
    10 OT DIIS     0.15E+00    2.1     0.00001440     -4434.8298482564 -9.15E-05
    11 OT DIIS     0.15E+00    1.9     0.00001419     -4434.8299390873 -9.08E-05
    12 OT DIIS     0.15E+00    2.0     0.00001363     -4434.8300800396 -1.41E-04
    13 OT DIIS     0.15E+00    2.1     0.00001245     -4434.8302353813 -1.55E-04
    14 OT DIIS     0.15E+00    2.0     0.00001208     -4434.8303404475 -1.05E-04
    15 OT DIIS     0.15E+00    2.3     0.00001168     -4434.8304735439 -1.33E-04
    16 OT DIIS     0.15E+00    2.3     0.00001144     -4434.8305791126 -1.06E-04
    17 OT DIIS     0.15E+00    2.0     0.00001130     -4434.8306824497 -1.03E-04
    18 OT DIIS     0.15E+00    2.0     0.00001145     -4434.8307982886 -1.16E-04
    19 OT DIIS     0.15E+00    1.9     0.00001114     -4434.8308650867 -6.68E-05
    20 OT DIIS     0.15E+00    2.2     0.00001086     -4434.8309150268 -4.99E-05
    21 OT DIIS     0.15E+00    2.2     0.00000987     -4434.8310163253 -1.01E-04

  *** SCF run converged in    21 steps ***


  Electronic density on regular grids:      -1483.9999999860        0.0000000140
  Core density on regular grids:             1483.9999999310       -0.0000000690
  Total charge density on r-space grids:       -0.0000000549
  Total charge density g-space grids:          -0.0000000549

  Overlap energy of the core charge distribution:               0.03022282504787
  Self energy of the core charge distribution:             -10331.29031661960289
  Core Hamiltonian energy:                                   2799.87517981197288
  Hartree energy:                                            3903.04912887529872
  Exchange-correlation energy:                               -805.72987217780167
  Dispersion energy:                                           -0.76535904025482

  Total energy:                                             -4434.83101632534090

  outer SCF iter =    2 RMS gradient =   0.99E-05 energy =      -4434.8310163253
  outer SCF loop converged in   2 iterations or   71 steps


 ENERGY| Total FORCE_EVAL ( QS ) energy [a.u.]:            -4434.831072015147583

 --------  Informations at step =     3 ------------
  Optimization Method        =                 BFGS
  Total Energy               =     -4434.8310720151
  Real energy change         =        -8.1297419737
  Predicted change in energy =        -9.1992856339
  Scaling factor             =         0.0037816458
  Step size                  =         0.4724315332
  Trust radius               =         0.4724315332
  Decrease in energy         =                  YES
  Used time                  =              168.242

  Convergence check :
  Max. step size             =         0.4724315332
  Conv. limit for step size  =         0.0030000000
  Convergence in step size   =                   NO
  RMS step size              =         0.0611901166
  Conv. limit for RMS step   =         0.0015000000
  Convergence in RMS step    =                   NO
  Max. gradient              =         3.2336325206
  Conv. limit for gradients  =         0.0004500000
  Conv. for gradients        =                   NO
  RMS gradient               =         0.5433080333
  Conv. limit for RMS grad.  =         0.0003000000
  Conv. for gradients        =                   NO
 ---------------------------------------------------

 --------------------------
 OPTIMIZATION STEP:      4
 --------------------------

  Step is scaled; Scaling factor =  0.02628

 Number of electrons:                                                       1484
 Number of occupied orbitals:                                                742
 Number of molecular orbitals:                                               742

 Number of orbital functions:                                               3388
 Number of independent orbital functions:                                   3388

 Extrapolation method: ASPC


 SCF WAVEFUNCTION OPTIMIZATION

  ----------------------------------- OT ---------------------------------------
  Minimizer      : DIIS                : direct inversion
                                         in the iterative subspace
                                         using   7 DIIS vectors
                                         safer DIIS on
  Preconditioner : FULL_SINGLE         : diagonalization based
  Precond_solver : DEFAULT
  stepsize       :    0.15000000                  energy_gap     :    0.20000000
  eps_taylor     :   0.10000E-15                  max_taylor     :             4
  ----------------------------------- OT ---------------------------------------

  Step     Update method      Time    Convergence         Total energy    Change
  ------------------------------------------------------------------------------
     1 OT DIIS     0.15E+00    6.2     0.00478079     -4436.6851823354 -4.44E+03
     2 OT DIIS     0.15E+00    2.1     0.00944508     -4434.7422538954  1.94E+00
     3 OT DIIS     0.15E+00    2.0     0.00579928     -4438.0411429902 -3.30E+00
     4 OT DIIS     0.15E+00    2.1     0.00306576     -4439.0016018280 -9.60E-01
     5 OT DIIS     0.15E+00    2.3     0.00199593     -4439.2521872793 -2.51E-01
     6 OT DIIS     0.15E+00    2.1     0.00118555     -4439.3569568450 -1.05E-01
     7 OT DIIS     0.15E+00    2.1     0.00074416     -4439.3997487392 -4.28E-02
     8 OT DIIS     0.15E+00    2.4     0.00049894     -4439.4192069117 -1.95E-02
     9 OT DIIS     0.15E+00    2.1     0.00033384     -4439.4285379081 -9.33E-03
    10 OT DIIS     0.15E+00    2.1     0.00024104     -4439.4351697429 -6.63E-03
    11 OT DIIS     0.15E+00    2.3     0.00022446     -4439.4390127938 -3.84E-03
    12 OT DIIS     0.15E+00    2.3     0.00025901     -4439.4408288178 -1.82E-03
[...]

 Number of orbital functions:                                               3388
 Number of independent orbital functions:                                   3388

 Extrapolation method: ASPC


 SCF WAVEFUNCTION OPTIMIZATION

  ----------------------------------- OT ---------------------------------------
  Minimizer      : DIIS                : direct inversion
                                         in the iterative subspace
                                         using   7 DIIS vectors
                                         safer DIIS on
  Preconditioner : FULL_SINGLE         : diagonalization based
  Precond_solver : DEFAULT
  stepsize       :    0.15000000                  energy_gap     :    0.20000000
  eps_taylor     :   0.10000E-15                  max_taylor     :             4
  ----------------------------------- OT ---------------------------------------

  Step     Update method      Time    Convergence         Total energy    Change
  ------------------------------------------------------------------------------
     1 OT DIIS     0.15E+00   17.9     0.00186000     -4462.2432924937 -4.46E+03
     2 OT DIIS     0.15E+00    8.5     0.00593987     -4461.0122274593  1.23E+00
     3 OT DIIS     0.15E+00    4.1     0.00134660     -4462.3947617669 -1.38E+00
     4 OT DIIS     0.15E+00    4.2     0.00069944     -4462.4555290100 -6.08E-02
     5 OT DIIS     0.15E+00    4.0     0.00040546     -4462.4722492995 -1.67E-02
     6 OT DIIS     0.15E+00    6.2     0.00027533     -4462.4804134098 -8.16E-03
     7 OT DIIS     0.15E+00    3.5     0.00021388     -4462.4856679999 -5.25E-03
     8 OT DIIS     0.15E+00    6.0     0.00019295     -4462.4898486199 -4.18E-03
     9 OT DIIS     0.15E+00    3.6     0.00015343     -4462.4923217740 -2.47E-03
    10 OT DIIS     0.15E+00    4.8     0.00011367     -4462.4943846997 -2.06E-03
    11 OT DIIS     0.15E+00    4.8     0.00012114     -4462.4951772610 -7.93E-04
    12 OT DIIS     0.15E+00    3.1     0.00009290     -4462.4960427804 -8.66E-04
    13 OT DIIS     0.15E+00    3.3     0.00007944     -4462.4964758063 -4.33E-04
    14 OT DIIS     0.15E+00    6.0     0.00007301     -4462.4967677441 -2.92E-04
    15 OT DIIS     0.15E+00    4.0     0.00005919     -4462.4971061715 -3.38E-04
    16 OT DIIS     0.15E+00    3.7     0.00005175     -4462.4973380211 -2.32E-04
    17 OT DIIS     0.15E+00    3.8     0.00004698     -4462.4975149947 -1.77E-04
    18 OT DIIS     0.15E+00    3.8     0.00004128     -4462.4976236483 -1.09E-04
    19 OT DIIS     0.15E+00    4.8     0.00004141     -4462.4978360289 -2.12E-04
    20 OT DIIS     0.15E+00    5.5     0.00003684     -4462.4979009285 -6.49E-05
    21 OT DIIS     0.15E+00    4.2     0.00003505     -4462.4979947568 -9.38E-05
    22 OT DIIS     0.15E+00    4.7     0.00003252     -4462.4981203897 -1.26E-04
    23 OT DIIS     0.15E+00    5.9     0.00002948     -4462.4982230475 -1.03E-04
    24 OT DIIS     0.15E+00    5.5     0.00002821     -4462.4983278845 -1.05E-04
    25 OT DIIS     0.15E+00    4.1     0.00002757     -4462.4984251991 -9.73E-05
    26 OT DIIS     0.15E+00    5.3     0.00002687     -4462.4985003314 -7.51E-05
    27 OT DIIS     0.15E+00    3.5     0.00002686     -4462.4986366845 -1.36E-04
    28 OT DIIS     0.15E+00    5.0     0.00002641     -4462.4986675322 -3.08E-05
    29 OT DIIS     0.15E+00    5.3     0.00002623     -4462.4987288094 -6.13E-05
    30 OT DIIS     0.15E+00    2.5     0.00002405     -4462.4988207460 -9.19E-05
    31 OT DIIS     0.15E+00    3.5     0.00002250     -4462.4988716425 -5.09E-05
    32 OT DIIS     0.15E+00    5.0     0.00002131     -4462.4989306151 -5.90E-05
    33 OT DIIS     0.15E+00    2.8     0.00002051     -4462.4989901968 -5.96E-05
    34 OT DIIS     0.15E+00    3.7     0.00002018     -4462.4990478293 -5.76E-05
    35 OT DIIS     0.15E+00    4.3     0.00001992     -4462.4991218245 -7.40E-05
    36 OT DIIS     0.15E+00    3.6     0.00002022     -4462.4991616122 -3.98E-05
    37 OT DIIS     0.15E+00    5.4     0.00002059     -4462.4992156337 -5.40E-05
    38 OT DIIS     0.15E+00    3.1     0.00001955     -4462.4992881582 -7.25E-05
    39 OT DIIS     0.15E+00    4.6     0.00001928     -4462.4993305994 -4.24E-05
    40 OT DIIS     0.15E+00    3.9     0.00001870     -4462.4993803614 -4.98E-05
    41 OT DIIS     0.15E+00    5.8     0.00001814     -4462.4994271309 -4.68E-05
    42 OT DIIS     0.15E+00    3.9     0.00001791     -4462.4994812262 -5.41E-05
    43 OT DIIS     0.15E+00    3.4     0.00001744     -4462.4995160598 -3.48E-05
    44 OT DIIS     0.15E+00    3.4     0.00001724     -4462.4995522012 -3.61E-05
    45 OT DIIS     0.15E+00    3.0     0.00001717     -4462.4995922036 -4.00E-05
    46 OT DIIS     0.15E+00    4.3     0.00001644     -4462.4996398694 -4.77E-05
    47 OT DIIS     0.15E+00    4.3     0.00001633     -4462.4996743830 -3.45E-05
    48 OT DIIS     0.15E+00    5.7     0.00001606     -4462.4997164486 -4.21E-05
    49 OT DIIS     0.15E+00    4.2     0.00001592     -4462.4997604920 -4.40E-05
    50 OT DIIS     0.15E+00    4.1     0.00001608     -4462.4998200409 -5.95E-05

  Leaving inner SCF loop after reaching    50 steps.


  Electronic density on regular grids:      -1483.9999997043        0.0000002957
  Core density on regular grids:             1483.9999999308       -0.0000000692
  Total charge density on r-space grids:        0.0000002265
  Total charge density g-space grids:           0.0000002265

  Overlap energy of the core charge distribution:               0.00000248647786
  Self energy of the core charge distribution:             -10331.29031661960289
  Core Hamiltonian energy:                                   2680.46302319397591
  Hartree energy:                                            3975.55888733306983
  Exchange-correlation energy:                               -786.53906689300686
  Dispersion energy:                                           -0.69234954183100

  Total energy:                                             -4462.49982004091726

  outer SCF iter =    1 RMS gradient =   0.16E-04 energy =      -4462.4998200409

  ----------------------------------- OT ---------------------------------------
  Minimizer      : DIIS                : direct inversion
                                         in the iterative subspace
                                         using   7 DIIS vectors
                                         safer DIIS on
  Preconditioner : FULL_SINGLE         : diagonalization based
  Precond_solver : DEFAULT
  stepsize       :    0.15000000                  energy_gap     :    0.20000000
  eps_taylor     :   0.10000E-15                  max_taylor     :             4
  ----------------------------------- OT ---------------------------------------

  Step     Update method      Time    Convergence         Total energy    Change
  ------------------------------------------------------------------------------
     1 OT DIIS     0.15E+00   19.5     0.00001567     -4462.4998362650 -1.62E-05
     2 OT DIIS     0.15E+00    5.4     0.00003431     -4462.4998699146 -3.36E-05
     3 OT DIIS     0.15E+00    4.9     0.00001379     -4462.4999191271 -4.92E-05
     4 OT DIIS     0.15E+00    2.6     0.00001333     -4462.4999477594 -2.86E-05
     5 OT DIIS     0.15E+00    6.1     0.00001402     -4462.5000509821 -1.03E-04
     6 OT DIIS     0.15E+00    3.4     0.00001466     -4462.5005122347 -4.61E-04
     7 OT DIIS     0.15E+00    2.3     0.00001306     -4462.5010492115 -5.37E-04
     8 OT DIIS     0.15E+00    3.8     0.00001020     -4462.5011485840 -9.94E-05
     9 OT DIIS     0.15E+00    6.9     0.00001226     -4462.5011908203 -4.22E-05
    10 OT DIIS     0.15E+00    4.0     0.00001050     -4462.5013707262 -1.80E-04
    11 OT DIIS     0.15E+00    4.7     0.00000966     -4462.5014382937 -6.76E-05

  *** SCF run converged in    11 steps ***


  Electronic density on regular grids:      -1483.9999997367        0.0000002633
  Core density on regular grids:             1483.9999999308       -0.0000000692
  Total charge density on r-space grids:        0.0000001941
  Total charge density g-space grids:           0.0000001941

  Overlap energy of the core charge distribution:               0.00000248647786
  Self energy of the core charge distribution:             -10331.29031661960289
  Core Hamiltonian energy:                                   2680.45952350306379
  Hartree energy:                                            3975.56005632126744
  Exchange-correlation energy:                               -786.53835444304946
  Dispersion energy:                                           -0.69234954183100

  Total energy:                                             -4462.50143829367425

  outer SCF iter =    2 RMS gradient =   0.97E-05 energy =      -4462.5014382937
  outer SCF loop converged in   2 iterations or   61 steps


 ENERGY| Total FORCE_EVAL ( QS ) energy [a.u.]:            -4462.501533150915748

 --------  Informations at step =   144 ------------
  Optimization Method        =                 BFGS
  Total Energy               =     -4462.5015331509
  Real energy change         =         0.0005045050
  Predicted change in energy =        -0.0006185711
  Scaling factor             =         0.8767061813
  Step size                  =         0.0120367493
  Trust radius               =         0.4724315332
  Decrease in energy         =                   NO
  Used time                  =              309.441

  Convergence check :
  Max. step size             =         0.0120367493
  Conv. limit for step size  =         0.0030000000
  Convergence in step size   =                   NO
  RMS step size              =         0.0029678416
  Conv. limit for RMS step   =         0.0015000000
  Convergence in RMS step    =                   NO
  Max. gradient              =         0.0073196420
  Conv. limit for gradients  =         0.0004500000
  Conv. for gradients        =                   NO
  RMS gradient               =         0.0011019943
  Conv. limit for RMS grad.  =         0.0003000000
  Conv. for gradients        =                   NO
 ---------------------------------------------------

 --------------------------
 OPTIMIZATION STEP:    145
 --------------------------

 Number of electrons:                                                       1484
 Number of occupied orbitals:                                                742
 Number of molecular orbitals:                                               742

 Number of orbital functions:                                               3388
 Number of independent orbital functions:                                   3388

 Extrapolation method: ASPC


 SCF WAVEFUNCTION OPTIMIZATION

  ----------------------------------- OT ---------------------------------------
  Minimizer      : DIIS                : direct inversion
                                         in the iterative subspace
                                         using   7 DIIS vectors
                                         safer DIIS on
  Preconditioner : FULL_SINGLE         : diagonalization based
  Precond_solver : DEFAULT
  stepsize       :    0.15000000                  energy_gap     :    0.20000000
  eps_taylor     :   0.10000E-15                  max_taylor     :             4
  ----------------------------------- OT ---------------------------------------

  Step     Update method      Time    Convergence         Total energy    Change
  ------------------------------------------------------------------------------
     1 OT DIIS     0.15E+00   15.1     0.00151436     -4462.3326421001 -4.46E+03
     2 OT DIIS     0.15E+00    4.1     0.00473883     -4461.5059764860  8.27E-01
     3 OT DIIS     0.15E+00    3.7     0.00117328     -4462.4197923755 -9.14E-01
     4 OT DIIS     0.15E+00    6.8     0.00046166     -4462.4685171703 -4.87E-02
     5 OT DIIS     0.15E+00    4.9     0.00030788     -4462.4771660829 -8.65E-03
     6 OT DIIS     0.15E+00    4.7     0.00019674     -4462.4822733980 -5.11E-03
     7 OT DIIS     0.15E+00    3.3     0.00018378     -4462.4853203604 -3.05E-03
     8 OT DIIS     0.15E+00    5.0     0.00016520     -4462.4881182965 -2.80E-03
     9 OT DIIS     0.15E+00    5.7     0.00010795     -4462.4898212678 -1.70E-03
    10 OT DIIS     0.15E+00    3.2     0.00008198     -4462.4911306983 -1.31E-03
    11 OT DIIS     0.15E+00    4.6     0.00006985     -4462.4920464953 -9.16E-04
    12 OT DIIS     0.15E+00    4.7     0.00005716     -4462.4926059149 -5.59E-04
    13 OT DIIS     0.15E+00    4.8     0.00005470     -4462.4930274436 -4.22E-04
    14 OT DIIS     0.15E+00    5.4     0.00005257     -4462.4934239141 -3.96E-04
    15 OT DIIS     0.15E+00    3.4     0.00004366     -4462.4937567642 -3.33E-04
    16 OT DIIS     0.15E+00    5.7     0.00004416     -4462.4940081733 -2.51E-04
    17 OT DIIS     0.15E+00    3.3     0.00003950     -4462.4943089145 -3.01E-04
    18 OT DIIS     0.15E+00    5.3     0.00003552     -4462.4945896947 -2.81E-04
    19 OT DIIS     0.15E+00    2.4     0.00003548     -4462.4947881497 -1.98E-04
    20 OT DIIS     0.15E+00    4.7     0.00003453     -4462.4949569209 -1.69E-04
    21 OT DIIS     0.15E+00    3.3     0.00003503     -4462.4951198306 -1.63E-04
    22 OT DIIS     0.15E+00    4.4     0.00003377     -4462.4952794683 -1.60E-04
    23 OT DIIS     0.15E+00    3.4     0.00003084     -4462.4953280421 -4.86E-05
    24 OT DIIS     0.15E+00    4.6     0.00002971     -4462.4954805475 -1.53E-04
    25 OT DIIS     0.15E+00    4.0     0.00002762     -4462.4955743916 -9.38E-05
    26 OT DIIS     0.15E+00    6.8     0.00002561     -4462.4956901462 -1.16E-04
    27 OT DIIS     0.15E+00    2.9     0.00002543     -4462.4957993362 -1.09E-04
    28 OT DIIS     0.15E+00    3.0     0.00002517     -4462.4959143453 -1.15E-04
    29 OT DIIS     0.15E+00    7.0     0.00002615     -4462.4960410466 -1.27E-04
    30 OT DIIS     0.15E+00    6.0     0.00002620     -4462.4961513892 -1.10E-04
    31 OT DIIS     0.15E+00    4.0     0.00002596     -4462.4962103249 -5.89E-05
    32 OT DIIS     0.15E+00    3.2     0.00002559     -4462.4963713333 -1.61E-04
    33 OT DIIS     0.15E+00    3.4     0.00002497     -4462.4964580273 -8.67E-05
    34 OT DIIS     0.15E+00    3.2     0.00002365     -4462.4965423742 -8.43E-05
    35 OT DIIS     0.15E+00    4.8     0.00002319     -4462.4966355998 -9.32E-05
    36 OT DIIS     0.15E+00    4.9     0.00002269     -4462.4967210807 -8.55E-05
    37 OT DIIS     0.15E+00    2.7     0.00002312     -4462.4968121708 -9.11E-05
    38 OT DIIS     0.15E+00    4.6     0.00002252     -4462.4968745755 -6.24E-05
    39 OT DIIS     0.15E+00    4.7     0.00002230     -4462.4969174548 -4.29E-05
    40 OT DIIS     0.15E+00    5.0     0.00002158     -4462.4970319063 -1.14E-04
    41 OT DIIS     0.15E+00    2.5     0.00002148     -4462.4971054221 -7.35E-05
    42 OT DIIS     0.15E+00    4.7     0.00002110     -4462.4971770403 -7.16E-05
    43 OT DIIS     0.15E+00    3.2     0.00002087     -4462.4972691552 -9.21E-05
    44 OT DIIS     0.15E+00    4.4     0.00002098     -4462.4973571069 -8.80E-05
    45 OT DIIS     0.15E+00    6.8     0.00002169     -4462.4974520735 -9.50E-05
    46 OT DIIS     0.15E+00    2.8     0.00002142     -4462.4974953872 -4.33E-05
    47 OT DIIS     0.15E+00    4.7     0.00002144     -4462.4975427922 -4.74E-05
    48 OT DIIS     0.15E+00    5.0     0.00002025     -4462.4976280009 -8.52E-05
    49 OT DIIS     0.15E+00    4.7     0.00001992     -4462.4976886789 -6.07E-05
    50 OT DIIS     0.15E+00    2.2     0.00001930     -4462.4977306960 -4.20E-05

  Leaving inner SCF loop after reaching    50 steps.


  Electronic density on regular grids:      -1483.9999997035        0.0000002965
  Core density on regular grids:             1483.9999999308       -0.0000000692
  Total charge density on r-space grids:        0.0000002273
  Total charge density g-space grids:           0.0000002273

  Overlap energy of the core charge distribution:               0.00000251640666
  Self energy of the core charge distribution:             -10331.29031661960289
  Core Hamiltonian energy:                                   2680.54712033794749
  Hartree energy:                                            3975.49779891307617
  Exchange-correlation energy:                               -786.55996537072633
  Dispersion energy:                                           -0.69237047310052

  Total energy:                                             -4462.49773069599996

  outer SCF iter =    1 RMS gradient =   0.19E-04 energy =      -4462.4977306960

  ----------------------------------- OT ---------------------------------------
  Minimizer      : DIIS                : direct inversion
                                         in the iterative subspace
                                         using   7 DIIS vectors
                                         safer DIIS on
  Preconditioner : FULL_SINGLE         : diagonalization based
  Precond_solver : DEFAULT
  stepsize       :    0.15000000                  energy_gap     :    0.20000000
  eps_taylor     :   0.10000E-15                  max_taylor     :             4
  ----------------------------------- OT ---------------------------------------

  Step     Update method      Time    Convergence         Total energy    Change
  ------------------------------------------------------------------------------
     1 OT DIIS     0.15E+00   21.1     0.00001868     -4462.4977974918 -6.68E-05
     2 OT DIIS     0.15E+00    4.0     0.00003024     -4462.4978881388 -9.06E-05
     3 OT DIIS     0.15E+00    4.0     0.00001759     -4462.4979354311 -4.73E-05
     4 OT DIIS     0.15E+00    6.7     0.00001723     -4462.4979867109 -5.13E-05
     5 OT DIIS     0.15E+00    6.0     0.00001810     -4462.4981866558 -2.00E-04
     6 OT DIIS     0.15E+00    3.0     0.00001893     -4462.4990842291 -8.98E-04
     7 OT DIIS     0.15E+00    3.7     0.00001867     -4462.5001253174 -1.04E-03
     8 OT DIIS     0.15E+00    2.8     0.00001478     -4462.5001787847 -5.35E-05
     9 OT DIIS     0.15E+00    5.6     0.00001654     -4462.5001766387  2.15E-06
    10 OT DIIS     0.15E+00    5.5     0.00001534     -4462.5006124231 -4.36E-04
    11 OT DIIS     0.15E+00    6.6     0.00001319     -4462.5007605971 -1.48E-04
    12 OT DIIS     0.15E+00    4.1     0.00001275     -4462.5009102913 -1.50E-04
    13 OT DIIS     0.15E+00    2.7     0.00001233     -4462.5011618454 -2.52E-04
    14 OT DIIS     0.15E+00    3.7     0.00001213     -4462.5013539598 -1.92E-04
[1694977035.310257] [ibc11b02n08:59025:0]        mm_xpmem.c:135  UCX  ERROR   failed to attach xpmem apid 0x150000e691 offset 0x1d4c1000 length 16384: Cannot allocate memory
[1694977035.310449] [ibc11b02n08:59025:0]        ucp_rkey.c:449  UCX  ERROR   failed to unpack remote key from remote md[7]: Input/output error
[1694977035.317963] [ibc11b02n08:59025:0]         pgtable.c:643  UCX  WARN    failed to remove pgtable region0x1d67be80 [0x2b23910dc818..0x2b23910dc818]
[1694977036.691523] [ibc11b02n08:59025:0]          rcache.c:674  UCX  WARN    xpmem_remote_mem: destroying inuse region 0x1d67be80 [0x2b23910dc818..0x2b23910dc818] g- rw ref 4294967295 apid 0x290000e691 attach_addr (nil) rmem 0x8ec1ce0
[1694977036.716092] [ibc11b02n08:59025:0]          rcache.c:674  UCX  WARN    xpmem_remote_mem: destroying inuse region 0x8ec1d10 [0x2b6445652000..0x2b6445655000] g- rw ref 1 apid 0x290000e691 attach_addr 0x2b23a37f9000 rmem 0x8ec1ce0
[1694977036.718039] [ibc11b02n08:59025:0]           mpool.c:54   UCX  WARN    object 0x2b24f9179d08 was not returned to mpool rcache_mp
[1694977036.718138] [ibc11b02n08:59025:0]           mpool.c:54   UCX  WARN    object 0x2b24f9179d98 was not returned to mpool rcache_mp
[1694977036.718225] [ibc11b02n08:59025:0]           mpool.c:54   UCX  WARN    object 0x2b23a37d7c58 was not returned to mpool rcache_mp
[1694977036.721644] [ibc11b02n08:59025:0]         pgtable.c:682  UCX  WARN    page table not empty during cleanup
