 DBCSR| CPU Multiplication driver                                           XSMM
 DBCSR| Multrec recursion limit                                              512
 DBCSR| Multiplication stack size                                           1000
 DBCSR| Maximum elements for images                                    UNLIMITED
 DBCSR| Multiplicative factor virtual images                                   1
 DBCSR| Use multiplication densification                                       T
 DBCSR| Multiplication size stacks                                             3
 DBCSR| Use memory pool for CPU allocation                                     F
 DBCSR| Number of 3D layers                                               SINGLE
 DBCSR| Use MPI memory allocation                                              F
 DBCSR| Use RMA algorithm                                                      F
 DBCSR| Use Communication thread                                               T
 DBCSR| Communication thread load                                             87
 DBCSR| MPI: My node id                                                        0
 DBCSR| MPI: Number of nodes                                                  56
 DBCSR| OMP: Current number of threads                                         1
 DBCSR| OMP: Max number of threads                                             1
 DBCSR| Split modifier for TAS multiplication algorithm                  1.0E+00


  **** **** ******  **  PROGRAM STARTED AT               2023-09-19 10:03:50.817
 ***** ** ***  *** **   PROGRAM STARTED ON                           ibc11b07n06
 **    ****   ******    PROGRAM STARTED BY                                 junli
 ***** **    ** ** **   PROGRAM PROCESS ID                                 83187
  **** **  *******  **  PROGRAM STARTED IN    /WORK/junli_work/libin/1_U28/0_try

 CP2K| version string:                                          CP2K version 9.1
 CP2K| source code revision number:                                  git:d8d7100
 CP2K| cp2kflags: omp libint fftw3 libxc elpa parallel mpi3 scalapack cosma xsmm
 CP2K|             plumed2 spglib libvori libbqb
 CP2K| is freely available from                            https://www.cp2k.org/
 CP2K| Program compiled at                          Sun Aug 13 14:10:33 CST 2023
 CP2K| Program compiled on                                               ibcln01
 CP2K| Program compiled for                                                local
 CP2K| Data directory path                         /apps/soft/cp2k/cp2k-9.1/data
 CP2K| Input file name                                             U28-1.restart

 GLOBAL| Force Environment number                                              1
 GLOBAL| Basis set file name                                        BASIS_MOLOPT
 GLOBAL| Potential file name                                      GTH_POTENTIALS
 GLOBAL| MM Potential file name                                     MM_POTENTIAL
 GLOBAL| Coordinate file name                                          U28_0.xyz
 GLOBAL| Method name                                                        CP2K
 GLOBAL| Project name                                                        U28
 GLOBAL| Run type                                                        GEO_OPT
 GLOBAL| FFT library                                                       FFTW3
 GLOBAL| Diagonalization library                                            ELPA
 GLOBAL| Minimum number of eigenvectors for ELPA usage                        16
 GLOBAL| Orthonormality check for eigenvectors                          DISABLED
 GLOBAL| Matrix multiplication library                                     COSMA
 GLOBAL| All-to-all communication in single precision                          F
 GLOBAL| FFTs using library dependent lengths                                  F
 GLOBAL| Grid backend                                                       AUTO
 GLOBAL| Global print level                                                  LOW
 GLOBAL| MPI I/O enabled                                                       T
 GLOBAL| Total number of message passing processes                            56
 GLOBAL| Number of threads for this process                                    1
 GLOBAL| This output is from process                                           0
 GLOBAL| Stack size for threads created by OpenMP (OMP_STACKSIZE)        default
 GLOBAL| CPU model name                Intel(R) Xeon(R) Gold 6258R CPU @ 2.70GHz
 GLOBAL| CPUID                                                              1003

 MEMORY| system memory details [Kb]
 MEMORY|                        rank 0           min           max       average
 MEMORY| MemTotal            196695912     196695912     196695912     196695912
 MEMORY| MemFree             154238640     154238640     154238640     154238640
 MEMORY| Buffers                     0             0             0             0
 MEMORY| Cached                3080144       3080144       3080144       3080144
 MEMORY| Slab                 16899480      16899480      16899480      16899480
 MEMORY| SReclaimable          5004624       5004624       5004624       5004624
 MEMORY| MemLikelyFree       162323408     162323408     162323408     162323408


 *** WARNING in atoms_input.F:123 :: Overwriting coordinates. Active    ***
 *** coordinates read from &COORD section. Active coordinates READ from ***
 *** &COORD section                                                     ***


 *******************************************************************************
 *******************************************************************************
 **                                                                           **
 **     #####                         ##              ##                      **
 **    ##   ##            ##          ##              ##                      **
 **   ##     ##                       ##            ######                    **
 **   ##     ##  ##   ##  ##   #####  ##  ##   ####   ##    #####    #####    **
 **   ##     ##  ##   ##  ##  ##      ## ##   ##      ##   ##   ##  ##   ##   **
 **   ##  ## ##  ##   ##  ##  ##      ####     ###    ##   ######   ######    **
 **    ##  ###   ##   ##  ##  ##      ## ##      ##   ##   ##       ##        **
 **     #######   #####   ##   #####  ##  ##  ####    ##    #####   ##        **
 **           ##                                                    ##        **
 **                                                                           **
 **                                                ... make the atoms dance   **
 **                                                                           **
 **            Copyright (C) by CP2K developers group (2000-2021)             **
 **                      J. Chem. Phys. 152, 194103 (2020)                    **
 **                                                                           **
 *******************************************************************************


 TOTAL NUMBERS AND MAXIMUM NUMBERS

  Total number of            - Atomic kinds:                                   3
                             - Atoms:                                        196
                             - Shell sets:                                   196
                             - Shells:                                      1148
                             - Primitive Cartesian functions:               1064
                             - Cartesian basis functions:                   3948
                             - Spherical basis functions:                   3388

  Maximum angular momentum of- Orbital basis functions:                        4
                             - Local part of the GTH pseudopotential:          2
                             - Non-local part of the GTH pseudopotential:      3


 SCF PARAMETERS         Density guess:                                   RESTART
                        --------------------------------------------------------
                        max_scf:                                              50
                        max_scf_history:                                       0
                        max_diis:                                              4
                        --------------------------------------------------------
                        eps_scf:                                        1.00E-05
                        eps_scf_history:                                0.00E+00
                        eps_diis:                                       1.00E-01
                        eps_eigval:                                     1.00E-05
                        --------------------------------------------------------
                        level_shift [a.u.]:                                 0.00
                        --------------------------------------------------------
                        Outer loop SCF in use 
                        No variables optimised in outer loop
                        eps_scf                                         1.00E-05
                        max_scf                                               10
                        No outer loop optimization
                        step_size                                       5.00E-01

 BFGS| Use rational function optimization for step estimation:                NO
 BFGS| Use model Hessian for initial guess:                                  YES
 BFGS| Restart Hessian:                                                       NO
 BFGS| Trust radius:                                                       0.472

 *******************************************************************************
 ***                     STARTING GEOMETRY OPTIMIZATION                      ***
 ***                                   BFGS                                  ***
 *******************************************************************************

 Number of electrons:                                                       1484
 Number of occupied orbitals:                                                742
 Number of molecular orbitals:                                               742

 Number of orbital functions:                                               3388
 Number of independent orbital functions:                                   3388

 Extrapolation method: initial_guess


 SCF WAVEFUNCTION OPTIMIZATION

  ----------------------------------- OT ---------------------------------------
  Minimizer      : DIIS                : direct inversion
                                         in the iterative subspace
                                         using   7 DIIS vectors
                                         safer DIIS on
  Preconditioner : FULL_SINGLE         : diagonalization based
  Precond_solver : DEFAULT
  stepsize       :    0.15000000                  energy_gap     :    0.20000000
  eps_taylor     :   0.10000E-15                  max_taylor     :             4
  ----------------------------------- OT ---------------------------------------

  Step     Update method      Time    Convergence         Total energy    Change
  ------------------------------------------------------------------------------
     1 OT DIIS     0.15E+00    5.8     0.00001001     -4462.5856842517 -4.46E+03
     2 OT DIIS     0.15E+00    2.0     0.00001786     -4462.5857081253 -2.39E-05
     3 OT DIIS     0.15E+00    1.8     0.00000926     -4462.5857229444 -1.48E-05

  *** SCF run converged in     3 steps ***


  Electronic density on regular grids:      -1483.9999996914        0.0000003086
  Core density on regular grids:             1483.9999999307       -0.0000000693
  Total charge density on r-space grids:        0.0000002392
  Total charge density g-space grids:           0.0000002392

  Overlap energy of the core charge distribution:               0.00000243649740
  Self energy of the core charge distribution:             -10331.29031661960289
  Core Hamiltonian energy:                                   2680.52812783055197
  Hartree energy:                                            3975.51116600081559
  Exchange-correlation energy:                               -786.64094734801733
  Dispersion energy:                                           -0.69375524463497

  Total energy:                                             -4462.58572294439000

  outer SCF iter =    1 RMS gradient =   0.93E-05 energy =      -4462.5857229444
  outer SCF loop converged in   1 iterations or    3 steps


 ENERGY| Total FORCE_EVAL ( QS ) energy [a.u.]:            -4462.585739712827490

 --------  Informations at step =   309 ------------
  Optimization Method        =                 BFGS
  Total Energy               =     -4462.5857397128
  Used time                  =               18.496

 --------------------------
 OPTIMIZATION STEP:    310
 --------------------------

 Number of electrons:                                                       1484
 Number of occupied orbitals:                                                742
 Number of molecular orbitals:                                               742

 Number of orbital functions:                                               3388
 Number of independent orbital functions:                                   3388

 Extrapolation method: ASPC


 SCF WAVEFUNCTION OPTIMIZATION

  ----------------------------------- OT ---------------------------------------
  Minimizer      : DIIS                : direct inversion
                                         in the iterative subspace
                                         using   7 DIIS vectors
                                         safer DIIS on
  Preconditioner : FULL_SINGLE         : diagonalization based
  Precond_solver : DEFAULT
  stepsize       :    0.15000000                  energy_gap     :    0.20000000
  eps_taylor     :   0.10000E-15                  max_taylor     :             4
  ----------------------------------- OT ---------------------------------------

  Step     Update method      Time    Convergence         Total energy    Change
  ------------------------------------------------------------------------------
     1 OT DIIS     0.15E+00    5.8     0.00007309     -4462.5846587459 -4.46E+03
     2 OT DIIS     0.15E+00    2.1     0.00006519     -4462.5855134031 -8.55E-04
     3 OT DIIS     0.15E+00    2.2     0.00008896     -4462.5854866198  2.68E-05
     4 OT DIIS     0.15E+00    1.9     0.00003806     -4462.5857861670 -3.00E-04
     5 OT DIIS     0.15E+00    2.1     0.00002235     -4462.5858609661 -7.48E-05
     6 OT DIIS     0.15E+00    2.1     0.00001684     -4462.5858993991 -3.84E-05
     7 OT DIIS     0.15E+00    1.8     0.00001262     -4462.5859339554 -3.46E-05
     8 OT DIIS     0.15E+00    2.0     0.00001040     -4462.5859593031 -2.53E-05
     9 OT DIIS     0.15E+00    1.8     0.00000999     -4462.5859896254 -3.03E-05

  *** SCF run converged in     9 steps ***


  Electronic density on regular grids:      -1483.9999996913        0.0000003087
  Core density on regular grids:             1483.9999999307       -0.0000000693
  Total charge density on r-space grids:        0.0000002394
  Total charge density g-space grids:           0.0000002394

  Overlap energy of the core charge distribution:               0.00000243471998
  Self energy of the core charge distribution:             -10331.29031661960289
  Core Hamiltonian energy:                                   2680.51261812232633
  Hartree energy:                                            3975.52054221853996
  Exchange-correlation energy:                               -786.63508884152714
  Dispersion energy:                                           -0.69374693986408

  Total energy:                                             -4462.58598962540964

  outer SCF iter =    1 RMS gradient =   0.10E-04 energy =      -4462.5859896254
  outer SCF loop converged in   1 iterations or    9 steps


 ENERGY| Total FORCE_EVAL ( QS ) energy [a.u.]:            -4462.586019736052549

 --------  Informations at step =   310 ------------
  Optimization Method        =                 BFGS
  Total Energy               =     -4462.5860197361
  Real energy change         =        -0.0002800232
  Predicted change in energy =        -0.0004118880
  Scaling factor             =         0.0000000000
  Step size                  =         0.0203543415
  Trust radius               =         0.4724315332
  Decrease in energy         =                  YES
  Used time                  =               31.608

  Convergence check :
  Max. step size             =         0.0203543415
  Conv. limit for step size  =         0.0030000000
  Convergence in step size   =                   NO
  RMS step size              =         0.0035171641
  Conv. limit for RMS step   =         0.0015000000
  Convergence in RMS step    =                   NO
  Max. gradient              =         0.0030947882
  Conv. limit for gradients  =         0.0004500000
  Conv. for gradients        =                   NO
  RMS gradient               =         0.0004459205
  Conv. limit for RMS grad.  =         0.0003000000
  Conv. for gradients        =                   NO
 ---------------------------------------------------

 --------------------------
 OPTIMIZATION STEP:    311
 --------------------------

 Number of electrons:                                                       1484
 Number of occupied orbitals:                                                742
 Number of molecular orbitals:                                               742

 Number of orbital functions:                                               3388
 Number of independent orbital functions:                                   3388

 Extrapolation method: ASPC


 SCF WAVEFUNCTION OPTIMIZATION

  ----------------------------------- OT ---------------------------------------
  Minimizer      : DIIS                : direct inversion
                                         in the iterative subspace
                                         using   7 DIIS vectors
                                         safer DIIS on
  Preconditioner : FULL_SINGLE         : diagonalization based
  Precond_solver : DEFAULT
  stepsize       :    0.15000000                  energy_gap     :    0.20000000
  eps_taylor     :   0.10000E-15                  max_taylor     :             4
  ----------------------------------- OT ---------------------------------------

  Step     Update method      Time    Convergence         Total energy    Change
  ------------------------------------------------------------------------------
     1 OT DIIS     0.15E+00    6.0     0.00010303     -4462.5841686346 -4.46E+03
     2 OT DIIS     0.15E+00    2.0     0.00009689     -4462.5857771739 -1.61E-03
     3 OT DIIS     0.15E+00    2.1     0.00013631     -4462.5856415934  1.36E-04
     4 OT DIIS     0.15E+00    2.0     0.00005604     -4462.5862696275 -6.28E-04
     5 OT DIIS     0.15E+00    2.2     0.00003301     -4462.5863977945 -1.28E-04
     6 OT DIIS     0.15E+00    2.0     0.00002213     -4462.5864467985 -4.90E-05
     7 OT DIIS     0.15E+00    1.8     0.00001418     -4462.5864859346 -3.91E-05
     8 OT DIIS     0.15E+00    2.1     0.00001047     -4462.5865079070 -2.20E-05
     9 OT DIIS     0.15E+00    2.0     0.00000978     -4462.5865305368 -2.26E-05

  *** SCF run converged in     9 steps ***


  Electronic density on regular grids:      -1483.9999996906        0.0000003094
  Core density on regular grids:             1483.9999999307       -0.0000000693
  Total charge density on r-space grids:        0.0000002401
  Total charge density g-space grids:           0.0000002401

  Overlap energy of the core charge distribution:               0.00000243500702
  Self energy of the core charge distribution:             -10331.29031661960289
  Core Hamiltonian energy:                                   2680.52995762081764
  Hartree energy:                                            3975.51006347563271
  Exchange-correlation energy:                               -786.64248991256954
  Dispersion energy:                                           -0.69374753605753

  Total energy:                                             -4462.58653053677244

  outer SCF iter =    1 RMS gradient =   0.98E-05 energy =      -4462.5865305368
  outer SCF loop converged in   1 iterations or    9 steps


 ENERGY| Total FORCE_EVAL ( QS ) energy [a.u.]:            -4462.586552887639300

 --------  Informations at step =   311 ------------
  Optimization Method        =                 BFGS
  Total Energy               =     -4462.5865528876
  Real energy change         =        -0.0005331516
  Predicted change in energy =        -0.0002206802
  Scaling factor             =         0.0000000000
  Step size                  =         0.0138086979
  Trust radius               =         0.4724315332
  Decrease in energy         =                  YES
  Used time                  =               32.495

  Convergence check :
  Max. step size             =         0.0138086979
  Conv. limit for step size  =         0.0030000000
  Convergence in step size   =                   NO
  RMS step size              =         0.0018416118
  Conv. limit for RMS step   =         0.0015000000
  Convergence in RMS step    =                   NO
  Max. gradient              =         0.0011975386
  Conv. limit for gradients  =         0.0004500000
  Conv. for gradients        =                   NO
  RMS gradient               =         0.0001944372
  Conv. limit for RMS grad.  =         0.0003000000
  Conv. in RMS gradients     =                  YES
 ---------------------------------------------------

 --------------------------
 OPTIMIZATION STEP:    312
 --------------------------

 Number of electrons:                                                       1484
 Number of occupied orbitals:                                                742
 Number of molecular orbitals:                                               742

 Number of orbital functions:                                               3388
 Number of independent orbital functions:                                   3388

 Extrapolation method: ASPC


 SCF WAVEFUNCTION OPTIMIZATION

  ----------------------------------- OT ---------------------------------------
  Minimizer      : DIIS                : direct inversion
                                         in the iterative subspace
                                         using   7 DIIS vectors
                                         safer DIIS on
  Preconditioner : FULL_SINGLE         : diagonalization based
  Precond_solver : DEFAULT
  stepsize       :    0.15000000                  energy_gap     :    0.20000000
  eps_taylor     :   0.10000E-15                  max_taylor     :             4
  ----------------------------------- OT ---------------------------------------

  Step     Update method      Time    Convergence         Total energy    Change
  ------------------------------------------------------------------------------
     1 OT DIIS     0.15E+00    6.3     0.00008544     -4462.5854665539 -4.46E+03
     2 OT DIIS     0.15E+00    1.9     0.00008681     -4462.5865254246 -1.06E-03
     3 OT DIIS     0.15E+00    2.2     0.00011730     -4462.5864416023  8.38E-05
     4 OT DIIS     0.15E+00    1.9     0.00004839     -4462.5868827803 -4.41E-04
     5 OT DIIS     0.15E+00    2.1     0.00002809     -4462.5869777385 -9.50E-05
     6 OT DIIS     0.15E+00    2.1     0.00001710     -4462.5870109704 -3.32E-05
     7 OT DIIS     0.15E+00    1.8     0.00001027     -4462.5870381107 -2.71E-05
     8 OT DIIS     0.15E+00    2.0     0.00000860     -4462.5870521811 -1.41E-05

  *** SCF run converged in     8 steps ***


  Electronic density on regular grids:      -1483.9999996904        0.0000003096
  Core density on regular grids:             1483.9999999307       -0.0000000693
  Total charge density on r-space grids:        0.0000002402
  Total charge density g-space grids:           0.0000002402

  Overlap energy of the core charge distribution:               0.00000243426971
  Self energy of the core charge distribution:             -10331.29031661960289
  Core Hamiltonian energy:                                   2680.51613205637295
  Hartree energy:                                            3975.51891755439283
  Exchange-correlation energy:                               -786.63804755646390
  Dispersion energy:                                           -0.69374005009427

  Total energy:                                             -4462.58705218112573

  outer SCF iter =    1 RMS gradient =   0.86E-05 energy =      -4462.5870521811
  outer SCF loop converged in   1 iterations or    8 steps


 ENERGY| Total FORCE_EVAL ( QS ) energy [a.u.]:            -4462.587067255908551

 --------  Informations at step =   312 ------------
  Optimization Method        =                 BFGS
  Total Energy               =     -4462.5870672559
  Real energy change         =        -0.0005143683
  Predicted change in energy =        -0.0000674060
  Scaling factor             =         0.0000000000
  Step size                  =         0.0139447294
  Trust radius               =         0.4724315332
  Decrease in energy         =                  YES
  Used time                  =               30.437

  Convergence check :
  Max. step size             =         0.0139447294
  Conv. limit for step size  =         0.0030000000
  Convergence in step size   =                   NO
  RMS step size              =         0.0014735432
  Conv. limit for RMS step   =         0.0015000000
  Convergence in RMS step    =                  YES
  Max. gradient              =         0.0012163667
  Conv. limit for gradients  =         0.0004500000
  Conv. for gradients        =                   NO
  RMS gradient               =         0.0001854734
  Conv. limit for RMS grad.  =         0.0003000000
  Conv. in RMS gradients     =                  YES
 ---------------------------------------------------

 --------------------------
 OPTIMIZATION STEP:    313
 --------------------------

 Number of electrons:                                                       1484
 Number of occupied orbitals:                                                742
 Number of molecular orbitals:                                               742

 Number of orbital functions:                                               3388
 Number of independent orbital functions:                                   3388

 Extrapolation method: ASPC


 SCF WAVEFUNCTION OPTIMIZATION

  ----------------------------------- OT ---------------------------------------
  Minimizer      : DIIS                : direct inversion
                                         in the iterative subspace
                                         using   7 DIIS vectors
                                         safer DIIS on
  Preconditioner : FULL_SINGLE         : diagonalization based
  Precond_solver : DEFAULT
  stepsize       :    0.15000000                  energy_gap     :    0.20000000
  eps_taylor     :   0.10000E-15                  max_taylor     :             4
  ----------------------------------- OT ---------------------------------------

  Step     Update method      Time    Convergence         Total energy    Change
  ------------------------------------------------------------------------------
     1 OT DIIS     0.15E+00    6.0     0.00006406     -4462.5868160911 -4.46E+03
     2 OT DIIS     0.15E+00    2.1     0.00008169     -4462.5873115147 -4.95E-04
     3 OT DIIS     0.15E+00    2.1     0.00008436     -4462.5873765865 -6.51E-05
     4 OT DIIS     0.15E+00    2.1     0.00003724     -4462.5875985015 -2.22E-04
     5 OT DIIS     0.15E+00    2.1     0.00001782     -4462.5876661109 -6.76E-05
     6 OT DIIS     0.15E+00    2.1     0.00001464     -4462.5876823518 -1.62E-05
     7 OT DIIS     0.15E+00    2.0     0.00000914     -4462.5876988517 -1.65E-05

  *** SCF run converged in     7 steps ***


  Electronic density on regular grids:      -1483.9999996900        0.0000003100
  Core density on regular grids:             1483.9999999307       -0.0000000693
  Total charge density on r-space grids:        0.0000002407
  Total charge density g-space grids:           0.0000002407

  Overlap energy of the core charge distribution:               0.00000243422427
  Self energy of the core charge distribution:             -10331.29031661960289
  Core Hamiltonian energy:                                   2680.51614145103667
  Hartree energy:                                            3975.51877610082465
  Exchange-correlation energy:                               -786.63857532062536
  Dispersion energy:                                           -0.69372689751907

  Total energy:                                             -4462.58769885166112

  outer SCF iter =    1 RMS gradient =   0.91E-05 energy =      -4462.5876988517
  outer SCF loop converged in   1 iterations or    7 steps


 ENERGY| Total FORCE_EVAL ( QS ) energy [a.u.]:            -4462.587710048851477

 --------  Informations at step =   313 ------------
  Optimization Method        =                 BFGS
  Total Energy               =     -4462.5877100489
  Real energy change         =        -0.0006427929
  Predicted change in energy =        -0.0000505366
  Scaling factor             =         0.0000000000
  Step size                  =         0.0187843912
  Trust radius               =         0.4724315332
  Decrease in energy         =                  YES
  Used time                  =               26.914

  Convergence check :
  Max. step size             =         0.0187843912
  Conv. limit for step size  =         0.0030000000
  Convergence in step size   =                   NO
  RMS step size              =         0.0013399302
  Conv. limit for RMS step   =         0.0015000000
  Convergence in RMS step    =                  YES
  Max. gradient              =         0.0010944308
  Conv. limit for gradients  =         0.0004500000
  Conv. for gradients        =                   NO
  RMS gradient               =         0.0001373113
  Conv. limit for RMS grad.  =         0.0003000000
  Conv. in RMS gradients     =                  YES
 ---------------------------------------------------

 --------------------------
 OPTIMIZATION STEP:    314
 --------------------------

 Number of electrons:                                                       1484
 Number of occupied orbitals:                                                742
 Number of molecular orbitals:                                               742

 Number of orbital functions:                                               3388
 Number of independent orbital functions:                                   3388

 Extrapolation method: ASPC


 SCF WAVEFUNCTION OPTIMIZATION

  ----------------------------------- OT ---------------------------------------
  Minimizer      : DIIS                : direct inversion
                                         in the iterative subspace
                                         using   7 DIIS vectors
                                         safer DIIS on
  Preconditioner : FULL_SINGLE         : diagonalization based
  Precond_solver : DEFAULT
  stepsize       :    0.15000000                  energy_gap     :    0.20000000
  eps_taylor     :   0.10000E-15                  max_taylor     :             4
  ----------------------------------- OT ---------------------------------------

  Step     Update method      Time    Convergence         Total energy    Change
  ------------------------------------------------------------------------------
     1 OT DIIS     0.15E+00    6.0     0.00005300     -4462.5878619489 -4.46E+03
     2 OT DIIS     0.15E+00    2.5     0.00009046     -4462.5880037411 -1.42E-04
     3 OT DIIS     0.15E+00    2.1     0.00005803     -4462.5882424993 -2.39E-04
     4 OT DIIS     0.15E+00    2.1     0.00003812     -4462.5883232129 -8.07E-05
     5 OT DIIS     0.15E+00    2.0     0.00001574     -4462.5883871033 -6.39E-05
     6 OT DIIS     0.15E+00    2.2     0.00001230     -4462.5884003523 -1.32E-05
     7 OT DIIS     0.15E+00    2.1     0.00000793     -4462.5884123824 -1.20E-05

  *** SCF run converged in     7 steps ***


  Electronic density on regular grids:      -1483.9999996906        0.0000003094
  Core density on regular grids:             1483.9999999307       -0.0000000693
  Total charge density on r-space grids:        0.0000002401
  Total charge density g-space grids:           0.0000002401

  Overlap energy of the core charge distribution:               0.00000243359634
  Self energy of the core charge distribution:             -10331.29031661960289
  Core Hamiltonian energy:                                   2680.51903484572358
  Hartree energy:                                            3975.51556160647397
  Exchange-correlation energy:                               -786.63901994892456
  Dispersion energy:                                           -0.69367469965328

  Total energy:                                             -4462.58841238238620

  outer SCF iter =    1 RMS gradient =   0.79E-05 energy =      -4462.5884123824
  outer SCF loop converged in   1 iterations or    7 steps


 ENERGY| Total FORCE_EVAL ( QS ) energy [a.u.]:            -4462.588421673466655

 --------  Informations at step =   314 ------------
  Optimization Method        =                 BFGS
  Total Energy               =     -4462.5884216735
  Real energy change         =        -0.0007116246
  Predicted change in energy =        -0.0000954642
  Scaling factor             =         0.0000000000
  Step size                  =         0.0589528514
  Trust radius               =         0.4724315332
  Decrease in energy         =                  YES
  Used time                  =               29.154

  Convergence check :
  Max. step size             =         0.0589528514
  Conv. limit for step size  =         0.0030000000
  Convergence in step size   =                   NO
  RMS step size              =         0.0038728715
  Conv. limit for RMS step   =         0.0015000000
  Convergence in RMS step    =                   NO
  Max. gradient              =         0.0011071893
  Conv. limit for gradients  =         0.0004500000
  Conv. for gradients        =                   NO
  RMS gradient               =         0.0002467754
  Conv. limit for RMS grad.  =         0.0003000000
  Conv. in RMS gradients     =                  YES
 ---------------------------------------------------

 --------------------------
 OPTIMIZATION STEP:    315
 --------------------------

 Number of electrons:                                                       1484
 Number of occupied orbitals:                                                742
 Number of molecular orbitals:                                               742

 Number of orbital functions:                                               3388
 Number of independent orbital functions:                                   3388

 Extrapolation method: ASPC


 SCF WAVEFUNCTION OPTIMIZATION

  ----------------------------------- OT ---------------------------------------
  Minimizer      : DIIS                : direct inversion
                                         in the iterative subspace
                                         using   7 DIIS vectors
                                         safer DIIS on
  Preconditioner : FULL_SINGLE         : diagonalization based
  Precond_solver : DEFAULT
  stepsize       :    0.15000000                  energy_gap     :    0.20000000
  eps_taylor     :   0.10000E-15                  max_taylor     :             4
  ----------------------------------- OT ---------------------------------------

  Step     Update method      Time    Convergence         Total energy    Change
  ------------------------------------------------------------------------------
     1 OT DIIS     0.15E+00    6.0     0.00005211     -4462.5887095199 -4.46E+03
     2 OT DIIS     0.15E+00    2.3     0.00009792     -4462.5887396139 -3.01E-05
     3 OT DIIS     0.15E+00    2.0     0.00005493     -4462.5890483686 -3.09E-04
     4 OT DIIS     0.15E+00    2.1     0.00003816     -4462.5891162266 -6.79E-05
     5 OT DIIS     0.15E+00    2.1     0.00001680     -4462.5891769606 -6.07E-05
     6 OT DIIS     0.15E+00    2.1     0.00001122     -4462.5891933980 -1.64E-05
     7 OT DIIS     0.15E+00    2.0     0.00000823     -4462.5892060190 -1.26E-05

  *** SCF run converged in     7 steps ***


  Electronic density on regular grids:      -1483.9999996912        0.0000003088
  Core density on regular grids:             1483.9999999308       -0.0000000692
  Total charge density on r-space grids:        0.0000002395
  Total charge density g-space grids:           0.0000002395

  Overlap energy of the core charge distribution:               0.00000242953340
  Self energy of the core charge distribution:             -10331.29031661960289
  Core Hamiltonian energy:                                   2680.51193471618808
  Hartree energy:                                            3975.52115490644110
  Exchange-correlation energy:                               -786.63839173567351
  Dispersion energy:                                           -0.69358971587002

  Total energy:                                             -4462.58920601898444

  outer SCF iter =    1 RMS gradient =   0.82E-05 energy =      -4462.5892060190
  outer SCF loop converged in   1 iterations or    7 steps


 ENERGY| Total FORCE_EVAL ( QS ) energy [a.u.]:            -4462.589216595461039

 --------  Informations at step =   315 ------------
  Optimization Method        =                 BFGS
  Total Energy               =     -4462.5892165955
  Real energy change         =        -0.0007949220
  Predicted change in energy =        -0.0001454016
  Scaling factor             =         0.0000000000
  Step size                  =         0.1136869215
  Trust radius               =         0.4724315332
  Decrease in energy         =                  YES
  Used time                  =               29.560

  Convergence check :
  Max. step size             =         0.1136869215
  Conv. limit for step size  =         0.0030000000
  Convergence in step size   =                   NO
  RMS step size              =         0.0073316547
  Conv. limit for RMS step   =         0.0015000000
  Convergence in RMS step    =                   NO
  Max. gradient              =         0.0045508853
  Conv. limit for gradients  =         0.0004500000
  Conv. for gradients        =                   NO
  RMS gradient               =         0.0004152276
  Conv. limit for RMS grad.  =         0.0003000000
  Conv. for gradients        =                   NO
 ---------------------------------------------------

 --------------------------
 OPTIMIZATION STEP:    316
 --------------------------

  Step is scaled; Scaling factor =  0.09669

 Number of electrons:                                                       1484
 Number of occupied orbitals:                                                742
 Number of molecular orbitals:                                               742

 Number of orbital functions:                                               3388
 Number of independent orbital functions:                                   3388

 Extrapolation method: ASPC


 SCF WAVEFUNCTION OPTIMIZATION

  ----------------------------------- OT ---------------------------------------
  Minimizer      : DIIS                : direct inversion
                                         in the iterative subspace
                                         using   7 DIIS vectors
                                         safer DIIS on
  Preconditioner : FULL_SINGLE         : diagonalization based
  Precond_solver : DEFAULT
  stepsize       :    0.15000000                  energy_gap     :    0.20000000
  eps_taylor     :   0.10000E-15                  max_taylor     :             4
  ----------------------------------- OT ---------------------------------------

  Step     Update method      Time    Convergence         Total energy    Change
  ------------------------------------------------------------------------------
     1 OT DIIS     0.15E+00    6.2     0.00013818     -4462.5844975299 -4.46E+03
     2 OT DIIS     0.15E+00    2.1     0.00016624     -4462.5866227993 -2.13E-03
     3 OT DIIS     0.15E+00    2.1     0.00015646     -4462.5871764883 -5.54E-04
     4 OT DIIS     0.15E+00    2.3     0.00009081     -4462.5878840960 -7.08E-04
     5 OT DIIS     0.15E+00    2.3     0.00004504     -4462.5881949502 -3.11E-04
     6 OT DIIS     0.15E+00    1.9     0.00002607     -4462.5882805869 -8.56E-05
     7 OT DIIS     0.15E+00    1.9     0.00001898     -4462.5883206697 -4.01E-05
     8 OT DIIS     0.15E+00    2.2     0.00001178     -4462.5883502226 -2.96E-05
     9 OT DIIS     0.15E+00    2.0     0.00001037     -4462.5883709928 -2.08E-05
    10 OT DIIS     0.15E+00    2.1     0.00000928     -4462.5883912757 -2.03E-05

  *** SCF run converged in    10 steps ***


  Electronic density on regular grids:      -1483.9999996982        0.0000003018
  Core density on regular grids:             1483.9999999308       -0.0000000692
  Total charge density on r-space grids:        0.0000002325
  Total charge density g-space grids:           0.0000002325

  Overlap energy of the core charge distribution:               0.00000241414520
  Self energy of the core charge distribution:             -10331.29031661960289
  Core Hamiltonian energy:                                   2680.49467049554914
  Hartree energy:                                            3975.53646903038316
  Exchange-correlation energy:                               -786.63597836321560
  Dispersion energy:                                           -0.69323823292860

  Total energy:                                             -4462.58839127567080

  outer SCF iter =    1 RMS gradient =   0.93E-05 energy =      -4462.5883912757
  outer SCF loop converged in   1 iterations or   10 steps


 ENERGY| Total FORCE_EVAL ( QS ) energy [a.u.]:            -4462.588412992354279

 --------  Informations at step =   316 ------------
  Optimization Method        =                 BFGS
  Total Energy               =     -4462.5884129924
  Real energy change         =         0.0008036031
  Predicted change in energy =        -0.0011362246
  Scaling factor             =         0.0966928615
  Step size                  =         0.4724315332
  Trust radius               =         0.4724315332
  Decrease in energy         =                   NO
  Used time                  =               35.898

  Convergence check :
  Max. step size             =         0.4724315332
  Conv. limit for step size  =         0.0030000000
  Convergence in step size   =                   NO
  RMS step size              =         0.0305625244
  Conv. limit for RMS step   =         0.0015000000
  Convergence in RMS step    =                   NO
  Max. gradient              =         0.0094807892
  Conv. limit for gradients  =         0.0004500000
  Conv. for gradients        =                   NO
  RMS gradient               =         0.0012328564
  Conv. limit for RMS grad.  =         0.0003000000
  Conv. for gradients        =                   NO
 ---------------------------------------------------

 --------------------------
 OPTIMIZATION STEP:    317
 --------------------------

 Number of electrons:                                                       1484
 Number of occupied orbitals:                                                742
 Number of molecular orbitals:                                               742

 Number of orbital functions:                                               3388
 Number of independent orbital functions:                                   3388

 Extrapolation method: ASPC


 SCF WAVEFUNCTION OPTIMIZATION

  ----------------------------------- OT ---------------------------------------
  Minimizer      : DIIS                : direct inversion
                                         in the iterative subspace
                                         using   7 DIIS vectors
                                         safer DIIS on
  Preconditioner : FULL_SINGLE         : diagonalization based
  Precond_solver : DEFAULT
  stepsize       :    0.15000000                  energy_gap     :    0.20000000
  eps_taylor     :   0.10000E-15                  max_taylor     :             4
  ----------------------------------- OT ---------------------------------------

  Step     Update method      Time    Convergence         Total energy    Change
  ------------------------------------------------------------------------------
     1 OT DIIS     0.15E+00    6.5     0.00046878     -4462.5461766392 -4.46E+03
     2 OT DIIS     0.15E+00    2.1     0.00051594     -4462.5732944762 -2.71E-02
     3 OT DIIS     0.15E+00    2.1     0.00052667     -4462.5774562928 -4.16E-03
     4 OT DIIS     0.15E+00    1.9     0.00028785     -4462.5858677444 -8.41E-03
     5 OT DIIS     0.15E+00    2.1     0.00013385     -4462.5890966035 -3.23E-03
     6 OT DIIS     0.15E+00    2.1     0.00007828     -4462.5898192911 -7.23E-04
     7 OT DIIS     0.15E+00    2.2     0.00005645     -4462.5901073547 -2.88E-04
     8 OT DIIS     0.15E+00    2.3     0.00003014     -4462.5902859757 -1.79E-04
     9 OT DIIS     0.15E+00    2.4     0.00002543     -4462.5903679110 -8.19E-05
    10 OT DIIS     0.15E+00    2.0     0.00002133     -4462.5904268070 -5.89E-05
    11 OT DIIS     0.15E+00    1.9     0.00001692     -4462.5904787121 -5.19E-05
    12 OT DIIS     0.15E+00    2.4     0.00001736     -4462.5905101410 -3.14E-05
    13 OT DIIS     0.15E+00    2.2     0.00001499     -4462.5905414520 -3.13E-05
    14 OT DIIS     0.15E+00    2.1     0.00001194     -4462.5905683499 -2.69E-05
    15 OT DIIS     0.15E+00    2.0     0.00001118     -4462.5905851224 -1.68E-05
    16 OT DIIS     0.15E+00    2.1     0.00001022     -4462.5905996935 -1.46E-05
    17 OT DIIS     0.15E+00    2.1     0.00000891     -4462.5906167970 -1.71E-05

  *** SCF run converged in    17 steps ***


  Electronic density on regular grids:      -1483.9999996917        0.0000003083
  Core density on regular grids:             1483.9999999308       -0.0000000692
  Total charge density on r-space grids:        0.0000002391
  Total charge density g-space grids:           0.0000002391

  Overlap energy of the core charge distribution:               0.00000242069336
  Self energy of the core charge distribution:             -10331.29031661960289
  Core Hamiltonian energy:                                   2680.50841878667688
  Hartree energy:                                            3975.52101757379842
  Exchange-correlation energy:                               -786.63628885491380
  Dispersion energy:                                           -0.69345010362884

  Total energy:                                             -4462.59061679697697

  outer SCF iter =    1 RMS gradient =   0.89E-05 energy =      -4462.5906167970
  outer SCF loop converged in   1 iterations or   17 steps


 ENERGY| Total FORCE_EVAL ( QS ) energy [a.u.]:            -4462.590630710164987

 --------  Informations at step =   317 ------------
  Optimization Method        =                 BFGS
  Total Energy               =     -4462.5906307102
  Real energy change         =        -0.0022177178
  Predicted change in energy =        -0.0013560889
  Scaling factor             =         0.0966928615
  Step size                  =         0.2702471652
  Trust radius               =         0.4724315332
  Decrease in energy         =                  YES
  Used time                  =               50.601

  Convergence check :
  Max. step size             =         0.2702471652
  Conv. limit for step size  =         0.0030000000
  Convergence in step size   =                   NO
  RMS step size              =         0.0178181187
  Conv. limit for RMS step   =         0.0015000000
  Convergence in RMS step    =                   NO
  Max. gradient              =         0.0041557851
  Conv. limit for gradients  =         0.0004500000
  Conv. for gradients        =                   NO
  RMS gradient               =         0.0005159987
  Conv. limit for RMS grad.  =         0.0003000000
  Conv. for gradients        =                   NO
 ---------------------------------------------------

 --------------------------
 OPTIMIZATION STEP:    318
 --------------------------

 Number of electrons:                                                       1484
 Number of occupied orbitals:                                                742
 Number of molecular orbitals:                                               742

 Number of orbital functions:                                               3388
 Number of independent orbital functions:                                   3388

 Extrapolation method: ASPC


 SCF WAVEFUNCTION OPTIMIZATION

  ----------------------------------- OT ---------------------------------------
  Minimizer      : DIIS                : direct inversion
                                         in the iterative subspace
                                         using   7 DIIS vectors
                                         safer DIIS on
  Preconditioner : FULL_SINGLE         : diagonalization based
  Precond_solver : DEFAULT
  stepsize       :    0.15000000                  energy_gap     :    0.20000000
  eps_taylor     :   0.10000E-15                  max_taylor     :             4
  ----------------------------------- OT ---------------------------------------

  Step     Update method      Time    Convergence         Total energy    Change
  ------------------------------------------------------------------------------
     1 OT DIIS     0.15E+00    6.3     0.00053652     -4462.5350606116 -4.46E+03
     2 OT DIIS     0.15E+00    2.0     0.00063945     -4462.5668765446 -3.18E-02
     3 OT DIIS     0.15E+00    2.2     0.00062793     -4462.5738309790 -6.95E-03
     4 OT DIIS     0.15E+00    2.2     0.00033070     -4462.5853367009 -1.15E-02
     5 OT DIIS     0.15E+00    2.1     0.00014949     -4462.5896595953 -4.32E-03
     6 OT DIIS     0.15E+00    2.2     0.00009054     -4462.5905622720 -9.03E-04
     7 OT DIIS     0.15E+00    2.1     0.00006409     -4462.5909189830 -3.57E-04
     8 OT DIIS     0.15E+00    2.3     0.00003296     -4462.5911348794 -2.16E-04
     9 OT DIIS     0.15E+00    2.3     0.00002819     -4462.5912176335 -8.28E-05
    10 OT DIIS     0.15E+00    1.9     0.00002284     -4462.5912738156 -5.62E-05
    11 OT DIIS     0.15E+00    2.1     0.00001807     -4462.5913175529 -4.37E-05
    12 OT DIIS     0.15E+00    2.2     0.00001812     -4462.5913419701 -2.44E-05
    13 OT DIIS     0.15E+00    2.2     0.00001495     -4462.5913664816 -2.45E-05
    14 OT DIIS     0.15E+00    2.3     0.00001155     -4462.5913875174 -2.10E-05
    15 OT DIIS     0.15E+00    2.0     0.00001099     -4462.5913990055 -1.15E-05
    16 OT DIIS     0.15E+00    2.5     0.00000952     -4462.5914087193 -9.71E-06

  *** SCF run converged in    16 steps ***


  Electronic density on regular grids:      -1483.9999996913        0.0000003087
  Core density on regular grids:             1483.9999999307       -0.0000000693
  Total charge density on r-space grids:        0.0000002394
  Total charge density g-space grids:           0.0000002394

  Overlap energy of the core charge distribution:               0.00000241883644
  Self energy of the core charge distribution:             -10331.29031661960289
  Core Hamiltonian energy:                                   2680.49745919070938
  Hartree energy:                                            3975.52927672501801
  Exchange-correlation energy:                               -786.63440970340162
  Dispersion energy:                                           -0.69342073088736

  Total energy:                                             -4462.59140871932868

  outer SCF iter =    1 RMS gradient =   0.95E-05 energy =      -4462.5914087193
  outer SCF loop converged in   1 iterations or   16 steps


 ENERGY| Total FORCE_EVAL ( QS ) energy [a.u.]:            -4462.591420920341079

 --------  Informations at step =   318 ------------
  Optimization Method        =                 BFGS
  Total Energy               =     -4462.5914209203
  Real energy change         =        -0.0007902102
  Predicted change in energy =        -0.0001852966
  Scaling factor             =         0.0966928615
  Step size                  =         0.0445001047
  Trust radius               =         0.4724315332
  Decrease in energy         =                  YES
  Used time                  =               50.002

  Convergence check :
  Max. step size             =         0.0445001047
  Conv. limit for step size  =         0.0030000000
  Convergence in step size   =                   NO
  RMS step size              =         0.0033352702
  Conv. limit for RMS step   =         0.0015000000
  Convergence in RMS step    =                   NO
  Max. gradient              =         0.0033086936
  Conv. limit for gradients  =         0.0004500000
  Conv. for gradients        =                   NO
  RMS gradient               =         0.0004546603
  Conv. limit for RMS grad.  =         0.0003000000
  Conv. for gradients        =                   NO
 ---------------------------------------------------

 --------------------------
 OPTIMIZATION STEP:    319
 --------------------------

 Number of electrons:                                                       1484
 Number of occupied orbitals:                                                742
 Number of molecular orbitals:                                               742

 Number of orbital functions:                                               3388
 Number of independent orbital functions:                                   3388

 Extrapolation method: ASPC


 SCF WAVEFUNCTION OPTIMIZATION

  ----------------------------------- OT ---------------------------------------
  Minimizer      : DIIS                : direct inversion
                                         in the iterative subspace
                                         using   7 DIIS vectors
                                         safer DIIS on
  Preconditioner : FULL_SINGLE         : diagonalization based
  Precond_solver : DEFAULT
  stepsize       :    0.15000000                  energy_gap     :    0.20000000
  eps_taylor     :   0.10000E-15                  max_taylor     :             4
  ----------------------------------- OT ---------------------------------------

  Step     Update method      Time    Convergence         Total energy    Change
  ------------------------------------------------------------------------------
     1 OT DIIS     0.15E+00    6.3     0.00028382     -4462.5769070203 -4.46E+03
     2 OT DIIS     0.15E+00    2.0     0.00038369     -4462.5835467163 -6.64E-03
     3 OT DIIS     0.15E+00    2.1     0.00029696     -4462.5879265412 -4.38E-03
     4 OT DIIS     0.15E+00    2.1     0.00020875     -4462.5899709739 -2.04E-03
     5 OT DIIS     0.15E+00    2.1     0.00007974     -4462.5916173628 -1.65E-03
     6 OT DIIS     0.15E+00    2.5     0.00005493     -4462.5918866312 -2.69E-04
     7 OT DIIS     0.15E+00    2.2     0.00003837     -4462.5920121909 -1.26E-04
     8 OT DIIS     0.15E+00    2.0     0.00002152     -4462.5921002656 -8.81E-05
     9 OT DIIS     0.15E+00    1.9     0.00001643     -4462.5921422870 -4.20E-05
    10 OT DIIS     0.15E+00    2.1     0.00001471     -4462.5921732729 -3.10E-05
    11 OT DIIS     0.15E+00    2.1     0.00001153     -4462.5922028628 -2.96E-05
    12 OT DIIS     0.15E+00    2.5     0.00001229     -4462.5922226312 -1.98E-05
    13 OT DIIS     0.15E+00    2.2     0.00001112     -4462.5922408610 -1.82E-05
    14 OT DIIS     0.15E+00    2.0     0.00000901     -4462.5922615412 -2.07E-05

  *** SCF run converged in    14 steps ***


  Electronic density on regular grids:      -1483.9999996929        0.0000003071
  Core density on regular grids:             1483.9999999308       -0.0000000692
  Total charge density on r-space grids:        0.0000002378
  Total charge density g-space grids:           0.0000002378

  Overlap energy of the core charge distribution:               0.00000241128510
  Self energy of the core charge distribution:             -10331.29031661960289
  Core Hamiltonian energy:                                   2680.47551791038086
  Hartree energy:                                            3975.54523413512925
  Exchange-correlation energy:                               -786.62944194757893
  Dispersion energy:                                           -0.69325743084006

  Total energy:                                             -4462.59226154122643

  outer SCF iter =    1 RMS gradient =   0.90E-05 energy =      -4462.5922615412
  outer SCF loop converged in   1 iterations or   14 steps


 ENERGY| Total FORCE_EVAL ( QS ) energy [a.u.]:            -4462.592275469513879

 --------  Informations at step =   319 ------------
  Optimization Method        =                 BFGS
  Total Energy               =     -4462.5922754695
  Real energy change         =        -0.0008545492
  Predicted change in energy =        -0.0004725172
  Scaling factor             =         0.0966928615
  Step size                  =         0.2397756911
  Trust radius               =         0.4724315332
  Decrease in energy         =                  YES
  Used time                  =               44.849

  Convergence check :
  Max. step size             =         0.2397756911
  Conv. limit for step size  =         0.0030000000
  Convergence in step size   =                   NO
  RMS step size              =         0.0158001698
  Conv. limit for RMS step   =         0.0015000000
  Convergence in RMS step    =                   NO
  Max. gradient              =         0.0036284821
  Conv. limit for gradients  =         0.0004500000
  Conv. for gradients        =                   NO
  RMS gradient               =         0.0005620335
  Conv. limit for RMS grad.  =         0.0003000000
  Conv. for gradients        =                   NO
 ---------------------------------------------------

 --------------------------
 OPTIMIZATION STEP:    320
 --------------------------

 Number of electrons:                                                       1484
 Number of occupied orbitals:                                                742
 Number of molecular orbitals:                                               742

 Number of orbital functions:                                               3388
 Number of independent orbital functions:                                   3388

 Extrapolation method: ASPC


 SCF WAVEFUNCTION OPTIMIZATION

  ----------------------------------- OT ---------------------------------------
  Minimizer      : DIIS                : direct inversion
                                         in the iterative subspace
                                         using   7 DIIS vectors
                                         safer DIIS on
  Preconditioner : FULL_SINGLE         : diagonalization based
  Precond_solver : DEFAULT
  stepsize       :    0.15000000                  energy_gap     :    0.20000000
  eps_taylor     :   0.10000E-15                  max_taylor     :             4
  ----------------------------------- OT ---------------------------------------

  Step     Update method      Time    Convergence         Total energy    Change
  ------------------------------------------------------------------------------
     1 OT DIIS     0.15E+00    6.2     0.00016681     -4462.5876796736 -4.46E+03
     2 OT DIIS     0.15E+00    2.2     0.00033050     -4462.5872017346  4.78E-04
     3 OT DIIS     0.15E+00    2.3     0.00015898     -4462.5911604732 -3.96E-03
     4 OT DIIS     0.15E+00    2.1     0.00012704     -4462.5916163850 -4.56E-04
     5 OT DIIS     0.15E+00    1.9     0.00005665     -4462.5922332425 -6.17E-04
     6 OT DIIS     0.15E+00    2.3     0.00003557     -4462.5923839455 -1.51E-04
     7 OT DIIS     0.15E+00    2.2     0.00002204     -4462.5924617049 -7.78E-05
     8 OT DIIS     0.15E+00    2.1     0.00001696     -4462.5925196049 -5.79E-05
     9 OT DIIS     0.15E+00    2.0     0.00001371     -4462.5925615858 -4.20E-05
    10 OT DIIS     0.15E+00    2.0     0.00001329     -4462.5925956438 -3.41E-05
    11 OT DIIS     0.15E+00    2.0     0.00001141     -4462.5926378502 -4.22E-05
    12 OT DIIS     0.15E+00    2.6     0.00001168     -4462.5926681638 -3.03E-05
    13 OT DIIS     0.15E+00    2.5     0.00001089     -4462.5926938812 -2.57E-05
    14 OT DIIS     0.15E+00    2.3     0.00000939     -4462.5927242280 -3.03E-05

  *** SCF run converged in    14 steps ***


  Electronic density on regular grids:      -1483.9999996931        0.0000003069
  Core density on regular grids:             1483.9999999307       -0.0000000693
  Total charge density on r-space grids:        0.0000002376
  Total charge density g-space grids:           0.0000002376

  Overlap energy of the core charge distribution:               0.00000240798415
  Self energy of the core charge distribution:             -10331.29031661960289
  Core Hamiltonian energy:                                   2680.45445940411855
  Hartree energy:                                            3975.56102598380312
  Exchange-correlation energy:                               -786.62470584872040
  Dispersion energy:                                           -0.69318955556728

  Total energy:                                             -4462.59272422798585

  outer SCF iter =    1 RMS gradient =   0.94E-05 energy =      -4462.5927242280
  outer SCF loop converged in   1 iterations or   14 steps


 ENERGY| Total FORCE_EVAL ( QS ) energy [a.u.]:            -4462.592748021572334

 --------  Informations at step =   320 ------------
  Optimization Method        =                 BFGS
  Total Energy               =     -4462.5927480216
  Real energy change         =        -0.0004725521
  Predicted change in energy =        -0.0003277694
  Scaling factor             =         0.0966928615
  Step size                  =         0.0836450943
  Trust radius               =         0.4724315332
  Decrease in energy         =                  YES
  Used time                  =               45.299

  Convergence check :
  Max. step size             =         0.0836450943
  Conv. limit for step size  =         0.0030000000
  Convergence in step size   =                   NO
  RMS step size              =         0.0062506274
  Conv. limit for RMS step   =         0.0015000000
  Convergence in RMS step    =                   NO
  Max. gradient              =         0.0036140556
  Conv. limit for gradients  =         0.0004500000
  Conv. for gradients        =                   NO
  RMS gradient               =         0.0004998582
  Conv. limit for RMS grad.  =         0.0003000000
  Conv. for gradients        =                   NO
 ---------------------------------------------------

 --------------------------
 OPTIMIZATION STEP:    321
 --------------------------

 Number of electrons:                                                       1484
 Number of occupied orbitals:                                                742
 Number of molecular orbitals:                                               742

 Number of orbital functions:                                               3388
 Number of independent orbital functions:                                   3388

 Extrapolation method: ASPC


 SCF WAVEFUNCTION OPTIMIZATION

  ----------------------------------- OT ---------------------------------------
  Minimizer      : DIIS                : direct inversion
                                         in the iterative subspace
                                         using   7 DIIS vectors
                                         safer DIIS on
  Preconditioner : FULL_SINGLE         : diagonalization based
  Precond_solver : DEFAULT
  stepsize       :    0.15000000                  energy_gap     :    0.20000000
  eps_taylor     :   0.10000E-15                  max_taylor     :             4
  ----------------------------------- OT ---------------------------------------

  Step     Update method      Time    Convergence         Total energy    Change
  ------------------------------------------------------------------------------
     1 OT DIIS     0.15E+00    6.1     0.00016448     -4462.5884249636 -4.46E+03
     2 OT DIIS     0.15E+00    2.3     0.00032031     -4462.5875038636  9.21E-04
     3 OT DIIS     0.15E+00    2.1     0.00014380     -4462.5916091122 -4.11E-03
     4 OT DIIS     0.15E+00    2.1     0.00012367     -4462.5919080728 -2.99E-04
     5 OT DIIS     0.15E+00    2.0     0.00004779     -4462.5924874158 -5.79E-04
     6 OT DIIS     0.15E+00    2.1     0.00003433     -4462.5925898776 -1.02E-04
     7 OT DIIS     0.15E+00    2.2     0.00002034     -4462.5926538932 -6.40E-05
     8 OT DIIS     0.15E+00    1.9     0.00001476     -4462.5926977762 -4.39E-05
     9 OT DIIS     0.15E+00    2.0     0.00001218     -4462.5927313962 -3.36E-05
    10 OT DIIS     0.15E+00    2.0     0.00001165     -4462.5927585337 -2.71E-05
    11 OT DIIS     0.15E+00    1.8     0.00001035     -4462.5927923191 -3.38E-05
    12 OT DIIS     0.15E+00    2.3     0.00001064     -4462.5928199825 -2.77E-05
    13 OT DIIS     0.15E+00    2.2     0.00001015     -4462.5928451032 -2.51E-05
    14 OT DIIS     0.15E+00    2.3     0.00000907     -4462.5928784060 -3.33E-05

  *** SCF run converged in    14 steps ***


  Electronic density on regular grids:      -1483.9999996940        0.0000003060
  Core density on regular grids:             1483.9999999308       -0.0000000692
  Total charge density on r-space grids:        0.0000002368
  Total charge density g-space grids:           0.0000002368

  Overlap energy of the core charge distribution:               0.00000241011419
  Self energy of the core charge distribution:             -10331.29031661960289
  Core Hamiltonian energy:                                   2680.46702659263337
  Hartree energy:                                            3975.55077095925844
  Exchange-correlation energy:                               -786.62715714460558
  Dispersion energy:                                           -0.69320460375264

  Total energy:                                             -4462.59287840595607

  outer SCF iter =    1 RMS gradient =   0.91E-05 energy =      -4462.5928784060
  outer SCF loop converged in   1 iterations or   14 steps


 ENERGY| Total FORCE_EVAL ( QS ) energy [a.u.]:            -4462.592905035420699

 --------  Informations at step =   321 ------------
  Optimization Method        =                 BFGS
  Total Energy               =     -4462.5929050354
  Real energy change         =        -0.0001570138
  Predicted change in energy =        -0.0003142779
  Scaling factor             =         0.0966928615
  Step size                  =         0.0598065054
  Trust radius               =         0.4724315332
  Decrease in energy         =                  YES
  Used time                  =               44.209

  Convergence check :
  Max. step size             =         0.0598065054
  Conv. limit for step size  =         0.0030000000
  Convergence in step size   =                   NO
  RMS step size              =         0.0041783603
  Conv. limit for RMS step   =         0.0015000000
  Convergence in RMS step    =                   NO
  Max. gradient              =         0.0034266137
  Conv. limit for gradients  =         0.0004500000
  Conv. for gradients        =                   NO
  RMS gradient               =         0.0004092747
  Conv. limit for RMS grad.  =         0.0003000000
  Conv. for gradients        =                   NO
 ---------------------------------------------------

 --------------------------
 OPTIMIZATION STEP:    322
 --------------------------

 Number of electrons:                                                       1484
 Number of occupied orbitals:                                                742
 Number of molecular orbitals:                                               742

 Number of orbital functions:                                               3388
 Number of independent orbital functions:                                   3388

 Extrapolation method: ASPC


 SCF WAVEFUNCTION OPTIMIZATION

  ----------------------------------- OT ---------------------------------------
  Minimizer      : DIIS                : direct inversion
                                         in the iterative subspace
                                         using   7 DIIS vectors
                                         safer DIIS on
  Preconditioner : FULL_SINGLE         : diagonalization based
  Precond_solver : DEFAULT
  stepsize       :    0.15000000                  energy_gap     :    0.20000000
  eps_taylor     :   0.10000E-15                  max_taylor     :             4
  ----------------------------------- OT ---------------------------------------

  Step     Update method      Time    Convergence         Total energy    Change
  ------------------------------------------------------------------------------
     1 OT DIIS     0.15E+00    6.5     0.00016398     -4462.5888604023 -4.46E+03
     2 OT DIIS     0.15E+00    2.5     0.00035587     -4462.5863864462  2.47E-03
     3 OT DIIS     0.15E+00    2.0     0.00012953     -4462.5916747869 -5.29E-03
     4 OT DIIS     0.15E+00    2.1     0.00011479     -4462.5918964900 -2.22E-04
     5 OT DIIS     0.15E+00    1.9     0.00004597     -4462.5923823042 -4.86E-04
     6 OT DIIS     0.15E+00    2.4     0.00003206     -4462.5924750367 -9.27E-05
     7 OT DIIS     0.15E+00    2.3     0.00001856     -4462.5925327932 -5.78E-05
     8 OT DIIS     0.15E+00    2.0     0.00001431     -4462.5925724266 -3.96E-05
     9 OT DIIS     0.15E+00    1.9     0.00001193     -4462.5926050225 -3.26E-05
    10 OT DIIS     0.15E+00    2.0     0.00001169     -4462.5926322165 -2.72E-05
    11 OT DIIS     0.15E+00    1.8     0.00001057     -4462.5926686995 -3.65E-05
    12 OT DIIS     0.15E+00    2.6     0.00001104     -4462.5927016139 -3.29E-05
    13 OT DIIS     0.15E+00    2.4     0.00001069     -4462.5927328173 -3.12E-05
    14 OT DIIS     0.15E+00    2.1     0.00000975     -4462.5927775102 -4.47E-05

  *** SCF run converged in    14 steps ***


  Electronic density on regular grids:      -1483.9999996936        0.0000003064
  Core density on regular grids:             1483.9999999308       -0.0000000692
  Total charge density on r-space grids:        0.0000002372
  Total charge density g-space grids:           0.0000002372

  Overlap energy of the core charge distribution:               0.00000241031095
  Self energy of the core charge distribution:             -10331.29031661960289
  Core Hamiltonian energy:                                   2680.46899523131378
  Hartree energy:                                            3975.55090663452120
  Exchange-correlation energy:                               -786.62916055080723
  Dispersion energy:                                           -0.69320461593759

  Total energy:                                             -4462.59277751020181

  outer SCF iter =    1 RMS gradient =   0.97E-05 energy =      -4462.5927775102
  outer SCF loop converged in   1 iterations or   14 steps


 ENERGY| Total FORCE_EVAL ( QS ) energy [a.u.]:            -4462.592811078890918

 --------  Informations at step =   322 ------------
  Optimization Method        =                 BFGS
  Total Energy               =     -4462.5928110789
  Real energy change         =         0.0000939565
  Predicted change in energy =        -0.0002317267
  Scaling factor             =         0.0966928615
  Step size                  =         0.0452100209
  Trust radius               =         0.4724315332
  Decrease in energy         =                   NO
  Used time                  =               45.363

  Convergence check :
  Max. step size             =         0.0452100209
  Conv. limit for step size  =         0.0030000000
  Convergence in step size   =                   NO
  RMS step size              =         0.0038971130
  Conv. limit for RMS step   =         0.0015000000
  Convergence in RMS step    =                   NO
  Max. gradient              =         0.0016928859
  Conv. limit for gradients  =         0.0004500000
  Conv. for gradients        =                   NO
  RMS gradient               =         0.0003561478
  Conv. limit for RMS grad.  =         0.0003000000
  Conv. for gradients        =                   NO
 ---------------------------------------------------

 --------------------------
 OPTIMIZATION STEP:    323
 --------------------------

 Number of electrons:                                                       1484
 Number of occupied orbitals:                                                742
 Number of molecular orbitals:                                               742

 Number of orbital functions:                                               3388
 Number of independent orbital functions:                                   3388

 Extrapolation method: ASPC


 SCF WAVEFUNCTION OPTIMIZATION

  ----------------------------------- OT ---------------------------------------
  Minimizer      : DIIS                : direct inversion
                                         in the iterative subspace
                                         using   7 DIIS vectors
                                         safer DIIS on
  Preconditioner : FULL_SINGLE         : diagonalization based
  Precond_solver : DEFAULT
  stepsize       :    0.15000000                  energy_gap     :    0.20000000
  eps_taylor     :   0.10000E-15                  max_taylor     :             4
  ----------------------------------- OT ---------------------------------------

  Step     Update method      Time    Convergence         Total energy    Change
  ------------------------------------------------------------------------------
     1 OT DIIS     0.15E+00    6.1     0.00013511     -4462.5896676181 -4.46E+03
     2 OT DIIS     0.15E+00    2.2     0.00028372     -4462.5883154209  1.35E-03
     3 OT DIIS     0.15E+00    2.2     0.00011280     -4462.5916402786 -3.32E-03
     4 OT DIIS     0.15E+00    2.2     0.00009604     -4462.5918298692 -1.90E-04
     5 OT DIIS     0.15E+00    2.2     0.00003824     -4462.5921807731 -3.51E-04
     6 OT DIIS     0.15E+00    2.6     0.00002637     -4462.5922545955 -7.38E-05
     7 OT DIIS     0.15E+00    2.2     0.00001642     -4462.5922990254 -4.44E-05
     8 OT DIIS     0.15E+00    2.2     0.00001288     -4462.5923342493 -3.52E-05
     9 OT DIIS     0.15E+00    1.9     0.00001084     -4462.5923646984 -3.04E-05
    10 OT DIIS     0.15E+00    1.8     0.00001093     -4462.5923912516 -2.66E-05
    11 OT DIIS     0.15E+00    2.1     0.00000988     -4462.5924266505 -3.54E-05

  *** SCF run converged in    11 steps ***


  Electronic density on regular grids:      -1483.9999996931        0.0000003069
  Core density on regular grids:             1483.9999999307       -0.0000000693
  Total charge density on r-space grids:        0.0000002377
  Total charge density g-space grids:           0.0000002377

  Overlap energy of the core charge distribution:               0.00000240970104
  Self energy of the core charge distribution:             -10331.29031661960289
  Core Hamiltonian energy:                                   2680.48197786454512
  Hartree energy:                                            3975.54312376284588
  Exchange-correlation energy:                               -786.63399496000761
  Dispersion energy:                                           -0.69321910796311

  Total energy:                                             -4462.59242665048168

  outer SCF iter =    1 RMS gradient =   0.99E-05 energy =      -4462.5924266505
  outer SCF loop converged in   1 iterations or   11 steps


 ENERGY| Total FORCE_EVAL ( QS ) energy [a.u.]:            -4462.592458747043565

 --------  Informations at step =   323 ------------
  Optimization Method        =                 BFGS
  Total Energy               =     -4462.5924587470
  Real energy change         =         0.0003523318
  Predicted change in energy =        -0.0002463751
  Scaling factor             =         0.0966928615
  Step size                  =         0.1149981210
  Trust radius               =         0.4724315332
  Decrease in energy         =                   NO
  Used time                  =               38.721

  Convergence check :
  Max. step size             =         0.1149981210
  Conv. limit for step size  =         0.0030000000
  Convergence in step size   =                   NO
  RMS step size              =         0.0075353188
  Conv. limit for RMS step   =         0.0015000000
  Convergence in RMS step    =                   NO
  Max. gradient              =         0.0031003655
  Conv. limit for gradients  =         0.0004500000
  Conv. for gradients        =                   NO
  RMS gradient               =         0.0004075868
  Conv. limit for RMS grad.  =         0.0003000000
  Conv. for gradients        =                   NO
 ---------------------------------------------------

 --------------------------
 OPTIMIZATION STEP:    324
 --------------------------

 Number of electrons:                                                       1484
 Number of occupied orbitals:                                                742
 Number of molecular orbitals:                                               742

 Number of orbital functions:                                               3388
 Number of independent orbital functions:                                   3388

 Extrapolation method: ASPC


 SCF WAVEFUNCTION OPTIMIZATION

  ----------------------------------- OT ---------------------------------------
  Minimizer      : DIIS                : direct inversion
                                         in the iterative subspace
                                         using   7 DIIS vectors
                                         safer DIIS on
  Preconditioner : FULL_SINGLE         : diagonalization based
  Precond_solver : DEFAULT
  stepsize       :    0.15000000                  energy_gap     :    0.20000000
  eps_taylor     :   0.10000E-15                  max_taylor     :             4
  ----------------------------------- OT ---------------------------------------

  Step     Update method      Time    Convergence         Total energy    Change
  ------------------------------------------------------------------------------
     1 OT DIIS     0.15E+00    6.6     0.00015127     -4462.5890749455 -4.46E+03
     2 OT DIIS     0.15E+00    1.9     0.00032715     -4462.5862184160  2.86E-03
     3 OT DIIS     0.15E+00    1.9     0.00009688     -4462.5912442970 -5.03E-03
     4 OT DIIS     0.15E+00    2.4     0.00008284     -4462.5914445813 -2.00E-04
     5 OT DIIS     0.15E+00    2.1     0.00003973     -4462.5917219579 -2.77E-04
     6 OT DIIS     0.15E+00    2.4     0.00002509     -4462.5918220515 -1.00E-04
     7 OT DIIS     0.15E+00    2.0     0.00001833     -4462.5918806037 -5.86E-05
     8 OT DIIS     0.15E+00    2.3     0.00001547     -4462.5919324947 -5.19E-05
     9 OT DIIS     0.15E+00    2.6     0.00001277     -4462.5919871305 -5.46E-05
    10 OT DIIS     0.15E+00    2.1     0.00001299     -4462.5920358087 -4.87E-05
    11 OT DIIS     0.15E+00    2.0     0.00001199     -4462.5920941447 -5.83E-05
[...]
 flops   847 x    38 x   121        4148116230720       0.0%    100.0%      0.0%
 flops   192 x    32 x    32        4159646466048       0.0%    100.0%      0.0%
 flops   847 x    38 x    32        4301334980096       0.0%    100.0%      0.0%
 flops    42 x    42 x    32        5044456327680       0.0%    100.0%      0.0%
 flops   166 x    64 x    32        5394541510656       0.0%    100.0%      0.0%
 flops    13 x    13 x    32        5664314517888       0.0%    100.0%      0.0%
 flops    42 x    32 x    14        6860446064640       0.0%    100.0%      0.0%
 flops    14 x    32 x    42        6860446064640       0.0%    100.0%      0.0%
 flops    42 x    13 x    32        7503081505920       0.0%    100.0%      0.0%
 flops    13 x    42 x    32        7514618791680       0.0%    100.0%      0.0%
 flops   192 x    32 x   121        9194287398912       0.0%    100.0%      0.0%
 flops    14 x    32 x    13       10425241438976       0.0%    100.0%      0.0%
 flops    13 x    32 x    14       10425241438976       0.0%    100.0%      0.0%
 flops   166 x    64 x   121       11923841470464       0.0%    100.0%      0.0%
 flops   847 x    32 x   121       13972602040320       0.0%    100.0%      0.0%
 flops   847 x    32 x    32       14488707301376       0.0%    100.0%      0.0%
 flops   192 x    64 x    32       18718409097216       0.0%    100.0%      0.0%
 flops    42 x    32 x    42       20581338193920       0.0%    100.0%      0.0%
 flops    13 x    32 x    13       23583749709312       0.0%    100.0%      0.0%
 flops    42 x    32 x    13       31730188089600       0.0%    100.0%      0.0%
 flops    13 x    32 x    42       31730188089600       0.0%    100.0%      0.0%
 flops   192 x    64 x   121       41374293295104       0.0%    100.0%      0.0%
 flops   847 x    64 x   121       62876709181440       0.0%    100.0%      0.0%
 flops   847 x    64 x    32       65199182856192       0.0%    100.0%      0.0%
 flops inhomo. stacks                           0       0.0%      0.0%      0.0%
 flops total                       446.080388E+12       0.0%    100.0%      0.0%
 flops max/rank                      9.609380E+12       0.0%    100.0%      0.0%
 matmuls inhomo. stacks                         0       0.0%      0.0%      0.0%
 matmuls total                         8538350632       0.0%    100.0%      0.0%
 number of processed stacks             329117824       0.0%    100.0%      0.0%
 average stack size                                     0.0      25.9       0.0
 marketing flops                   520.586007E+12
 -------------------------------------------------------------------------------
 # multiplications                          99387
 max memory usage/rank             811.954176E+06
 # max total images/rank                        7
 # max 3D layers                                1
 # MPI messages exchanged               261586584
 MPI messages size (bytes):
  total size                        33.683596E+12
  min size                           0.000000E+00
  max size                         819.896000E+03
  average size                     128.766523E+03
 MPI breakdown and total messages size (bytes):
             size <=      128            25351936                        0
       128 < size <=     8192            19915302             148554784800
      8192 < size <=    32768            54981396            1024230691776
     32768 < size <=   131072            79845630            4182624266688
    131072 < size <=  4194304            81492320           27862964532416
   4194304 < size <= 16777216                   0                        0
  16777216 < size                               0                        0
 -------------------------------------------------------------------------------

 *** WARNING in dbcsr_mm.F:294 :: Using a non-square number of MPI ranks ***
 *** might lead to poor performance. Used ranks: 56 Suggested: 49 121    ***

 -------------------------------------------------------------------------------
 -                                                                             -
 -                      DBCSR MESSAGE PASSING PERFORMANCE                      -
 -                                                                             -
 -------------------------------------------------------------------------------
 ROUTINE             CALLS      AVE VOLUME [Bytes]
 MP_Bcast               70                     12.
 MP_Allreduce       533520                      8.
 MP_Alltoall        333640                  43597.
 MP_ISend         10476210                  62960.
 MP_IRecv         10347994                  62020.
 -------------------------------------------------------------------------------

 -------------------------------------------------------------------------------
 -                                                                             -
 -                                GRID STATISTICS                              -
 -                                                                             -
 -------------------------------------------------------------------------------
 LP    KERNEL             BACKEND                              COUNT     PERCENT
 6     collocate ortho    REF                              328180887      23.09%
 6     integrate ortho    REF                              321747001      22.64%
 4     collocate ortho    REF                              306362780      21.56%
 4     integrate ortho    REF                              300356797      21.14%
 8     collocate ortho    REF                               74954998       5.27%
 8     integrate ortho    REF                               73485488       5.17%
 9     integrate ortho    REF                                6433886       0.45%
 7     integrate ortho    REF                                6005983       0.42%
 11    integrate ortho    REF                                1469510       0.10%
 0     collocate general  REF                                1009792       0.07%
 3     integrate general  REF                                1009792       0.07%
 -------------------------------------------------------------------------------

 MEMORY| Estimated peak process memory [MiB]                                 775

 -------------------------------------------------------------------------------
 -                                                                             -
 -                         MESSAGE PASSING PERFORMANCE                         -
 -                                                                             -
 -------------------------------------------------------------------------------

 ROUTINE             CALLS      AVE VOLUME [Bytes]
 MP_Group                4
 MP_Bcast            89459                   4680.
 MP_Allreduce       231151                    388.
 MP_Sync              6958
 MP_Alltoall        100026                8960539.
 MP_SendRecv         20240                   4732.
 MP_ISendRecv      1032460                  60552.
 MP_Wait           1780946
 MP_comm_split        3400
 MP_ISend           663276                 281452.
 MP_IRecv           663276                 281452.
 MP_Recv              7802                 716839.
 -------------------------------------------------------------------------------


 -------------------------------------------------------------------------------
 -                                                                             -
 -                           R E F E R E N C E S                               -
 -                                                                             -
 -------------------------------------------------------------------------------
 
 CP2K version 9.1, the CP2K developers group (2021).
 CP2K is freely available from https://www.cp2k.org/ .

 Kuehne,Thomas D.; Iannuzzi,Marcella; Del Ben,Mauro;
 Rybkin,Vladimir V.; Seewald,Patrick; Stein,Frederick; Laino,Teodoro;
 Khaliullin,Rustam Z.; Schuett,Ole; Schiffmann,Florian; Golze,Dorothea;
 Wilhelm,Jan; Chulkov,Sergey; Bani-Hashemian,Mohammad Hossein;
 Weber,Valery; Borstnik,Urban; Taillefumier,Mathieu;
 Jakobovits,Alice Shoshana; Lazzaro,Alfio; Pabst,Hans; Mueller,Tiziano;
 Schade,Robert; Guidon,Manuel; Andermatt,Samuel; Holmberg,Nico;
 Schenter,Gregory K.; Hehn,Anna; Bussy,Augustin; Belleflamme,Fabian;
 Tabacchi,Gloria; Gloess,Andreas; Lass,Michael; Bethune,Iain;
 Mundy,Christopher J.; Plessl,Christian; Watkins,Matt;
 VandeVondele,Joost; Krack,Matthias; Hutter,Juerg. 
 The Journal of Chemical Physics, 152 (19), (2020). 
 CP2K: An electronic structure and molecular dynamics software package -
 Quickstep: Efficient and accurate electronic structure calculations.
 https://doi.org/10.1063/5.0007045

 Goerigk, Lars; Hansen, Andreas; Bauer, Christoph; Ehrlich, Stephan;
 Najibi, Asim; Grimme, Stefan. , 19 (48), (2017). 
 A look at the density functional theory zoo with the advanced GMTKN55 database
 for general main group thermochemistry, kinetics and noncovalent interactions.
 https://doi.org/10.1039/C7CP04913G

 Schuett, Ole; Messmer, Peter; Hutter, Juerg; VandeVondele, Joost. 
 Electronic Structure Calculations on Graphics Processing Units, John
 Wiley & Sons, Ltd, 173-190 (2016). 
 GPU-Accelerated Sparse Matrix-Matrix Multiplication for
 Linear Scaling Density Functional Theory.
 https://doi.org/10.1002/9781118670712.ch8

 Heinecke, A; Henry, G; Hutchinson, M; Pabst, H. 
 Proceedings of Intl. Supercomputing Conference, 981-991 (2016). 
 LIBXSMM: Accelerating Small Matrix Multiplications
 by Runtime Code Generation.
 https://doi.org/10.1109/SC.2016.83

 Borstnik, U; VandeVondele, J; Weber, V; Hutter, J. 
 PARALLEL COMPUTING, 40 (5-6), 47-58 (2014). 
 Sparse matrix multiplication: The distributed block-compressed sparse
 row library.
 https://doi.org/10.1016/j.parco.2014.03.012

 Hutter, J; Iannuzzi, M; Schiffmann, F; VandeVondele, J. 
 WIREs Comput Mol Sci., 4 (1), 15-25 (2014). 
 CP2K: atomistic simulations of condensed matter systems.
 https://doi.org/10.1002/wcms.1159

 Marek, A; Blum, V; Johanni, R; Havu, V; Lang, B; Auckenthaler, T;
 Heinecke, A; Bungartz, H; Lederer, H. 
 Journal of Physics: Condensed Matter, 26 (21), (2014). 
 The ELPA library: scalable parallel eigenvalue solutions for
 electronic structure
 theory and computational science.
 https://doi.org/10.1088/0953-8984/26/21/213201

 Grimme, S; Ehrlich, S; Goerigk, L. 
 JOURNAL OF COMPUTATIONAL CHEMISTRY, 32, 1456 (2011). 
 Effect of the damping function in dispersion corrected density functional theory.
 https://doi.org/10.1002/jcc.21759

 Grimme, S; Antony, J; Ehrlich, S; Krieg, H. 
 JOURNAL OF CHEMICAL PHYSICS, 132 (15), 154104 (2010). 
 A consistent and accurate ab initio parametrization of density
 functional dispersion correction (DFT-D) for the 94 elements H-Pu.
 https://doi.org/10.1063/1.3382344

 VandeVondele, J; Hutter, J. 
 JOURNAL OF CHEMICAL PHYSICS, 127 (11), 114105 (2007). 
 Gaussian basis sets for accurate calculations on molecular systems in
 gas and condensed phases.
 https://doi.org/10.1063/1.2770708

 Kuhne, TD; Krack, M; Mohamed, FR; Parrinello, M. 
 PHYSICAL REVIEW LETTERS, 98 (6), 066401 (2007). 
 Efficient and accurate Car-Parrinello-like approach to
 Born-Oppenheimer molecular dynamics.
 https://doi.org/10.1103/PhysRevLett.98.066401

 Krack, M. 
 THEORETICAL CHEMISTRY ACCOUNTS, 114 (1-3), 145-152 (2005). 
 Pseudopotentials for H to Kr optimized for gradient-corrected
 exchange-correlation functionals.
 https://doi.org/10.1007/s00214-005-0655-y

 VandeVondele, J; Krack, M; Mohamed, F; Parrinello, M; Chassaing, T;
 Hutter, J. COMPUTER PHYSICS COMMUNICATIONS, 167 (2), 103-128 (2005). 
 QUICKSTEP: Fast and accurate density functional calculations using a
 mixed Gaussian and plane waves approach.
 https://doi.org/10.1016/j.cpc.2004.12.014

 Frigo, M; Johnson, SG. 
 PROCEEDINGS OF THE IEEE, 93 (2), 216-231 (2005). 
 The design and implementation of FFTW3.
 https://doi.org/10.1109/JPROC.2004.840301

 Kolafa, J. 
 JOURNAL OF COMPUTATIONAL CHEMISTRY, 25 (3), 335-342 (2004). 
 Time-reversible always stable predictor-corrector method for
 molecular dynamics of polarizable molecules.
 https://doi.org/10.1002/jcc.10385

 VandeVondele, J; Hutter, J. 
 JOURNAL OF CHEMICAL PHYSICS, 118 (10), 4365-4369 (2003). 
 An efficient orbital transformation method for electronic structure
 calculations.
 https://doi.org/10.1063/1.1543154

 Hartwigsen, C; Goedecker, S; Hutter, J. 
 PHYSICAL REVIEW B, 58 (7), 3641-3662 (1998). 
 Relativistic separable dual-space Gaussian pseudopotentials from H to Rn.
 https://doi.org/10.1103/PhysRevB.58.3641

 Lippert, G; Hutter, J; Parrinello, M. 
 MOLECULAR PHYSICS, 92 (3), 477-487 (1997). 
 A hybrid Gaussian and plane wave density functional scheme.
 https://doi.org/10.1080/002689797170220

 Perdew, JP; Burke, K; Ernzerhof, M. 
 PHYSICAL REVIEW LETTERS, 77 (18), 3865-3868 (1996). 
 Generalized gradient approximation made simple.
 https://doi.org/10.1103/PhysRevLett.77.3865

 Goedecker, S; Teter, M; Hutter, J. 
 PHYSICAL REVIEW B, 54 (3), 1703-1710 (1996). 
 Separable dual-space Gaussian pseudopotentials.
 https://doi.org/10.1103/PhysRevB.54.1703


 -------------------------------------------------------------------------------
 -                                                                             -
 -                                T I M I N G                                  -
 -                                                                             -
 -------------------------------------------------------------------------------
 SUBROUTINE                       CALLS  ASD         SELF TIME        TOTAL TIME
                                MAXIMUM       AVERAGE  MAXIMUM  AVERAGE  MAXIMUM
 CP2K                                 1  1.0     0.06     0.40 14526.91 14526.95
 cp_geo_opt                           1  2.0     0.00     0.00 14526.18 14526.24
 geoopt_bfgs                          1  3.0     0.02     0.19 14526.18 14526.24
 cp_eval_at                          92  4.0     0.02     0.02 14509.58 14509.62
 qs_forces                           92  5.0     0.01     0.02 14509.55 14509.59
 qs_energies                         92  6.0     0.01     0.01 13747.31 13747.38
 scf_env_do_scf                      92  7.0     0.01     0.03 13519.16 13519.23
 scf_env_do_scf_inner_loop         4601  8.0     0.10     0.45 12294.03 12296.61
 rebuild_ks_matrix                 4693  9.9     0.02     0.02  7473.29  7477.40
 qs_ks_build_kohn_sham_matrix      4693 10.9     0.65     0.93  7473.27  7477.38
 qs_ks_update_qs_env               4755  9.0     0.04     0.04  7066.42  7070.17
 pw_transfer                      89259 13.6     6.78     8.93  4152.22  4220.95
 fft_wrap_pw1pw2                  79873 14.7     1.21     1.44  4117.01  4185.06
 fft_wrap_pw1pw2_210              51715 15.8   189.19   196.35  3827.21  3887.52
 qs_vxc_create                     4693 11.9     0.12     0.14  3763.27  3790.64
 xc_vxc_pw_create                  4693 12.9    86.02   104.06  3763.15  3790.54
 fft3d_ps                         79873 16.7   964.67  1138.57  3553.14  3629.55
 qs_rho_update_rho                 4693  9.0     0.03     0.03  3411.98  3422.74
 calculate_rho_elec                4693 10.0     6.04     7.30  3411.95  3422.71
 sum_up_and_integrate              4693 11.9     6.86     7.93  3007.80  3021.77
 integrate_v_rspace                4693 12.9     0.17     0.38  3000.93  3014.95
 mp_alltoall_z22v                 79873 18.7  2332.55  2473.44  2332.55  2473.44
 rs_pw_transfer                   37728 13.5     0.67     1.07  2364.27  2440.04
 density_rs2pw                     4693 11.0     0.29     0.38  2174.17  2260.62
 qs_scf_new_mos                    4601  9.0     0.03     0.03  2097.15  2107.41
 qs_scf_loop_do_ot                 4601 10.0     0.03     0.04  2097.12  2107.38
 dbcsr_multiply_generic           99387 14.1     6.08     6.85  1995.24  2007.02
 ot_scf_mini                       4601 11.0     0.10     0.13  1959.82  1964.62
 xc_rho_set_and_dset_create        4693 13.9     7.63     9.08  1554.28  1926.18
 mp_waitany                      663276 15.4  1552.76  1644.29  1552.76  1644.29
 yz_to_x                          32943 17.3    83.37    97.92  1509.58  1643.19
 x_to_yz                          37544 18.1   148.62   174.91  1052.83  1547.14
 grid_integrate_task_list          4693 13.9  1321.19  1426.23  1321.19  1426.23
 rs_pw_transfer_RS2PW_210          4785 13.0   113.27   129.95  1195.12  1281.95
 multiply_cannon                  99387 15.1     9.11    10.49  1229.16  1266.42
 mp_waitall_1                   9863726 17.9  1148.72  1243.42  1148.72  1243.42
 init_scf_loop                      154  8.0     0.01     0.01  1220.85  1220.90
 potential_pw2rs                   4693 13.9     0.72     1.08  1164.19  1166.24
 grid_collocate_task_list          4693 11.0  1067.14  1153.27  1067.14  1153.27
 multiply_cannon_loop             99387 16.1    19.57    20.26  1056.19  1085.21
 ot_mini                           4601 12.0     0.03     0.03  1055.39  1062.66
 prepare_preconditioner             154  9.0     0.00     0.00   949.94   950.62
 make_preconditioner                154 10.0     0.00     0.00   949.94   950.62
 make_full_single                   154 11.0     0.08     0.11   904.96   905.60
 qs_ot_get_derivative              4601 13.0     0.05     0.06   725.81   732.08
 multiply_cannon_metrocomm3     2782836 17.1     4.48     4.75   651.53   717.01
 mp_alltoall_d11v                 71596 16.0   639.96   697.67   639.96   697.67
 rs_gather_matrices                4693 13.9     3.23     3.74   509.16   566.58
 qs_ot_get_p                       4755 11.9     0.04     0.04   539.82   545.48
 xc_functional_eval                4693 14.9     0.05     0.08   442.94   543.35
 pbe_lda_eval                      4693 15.9   442.89   543.30   442.89   543.30
 cp_fm_diag_elpa                   3554 14.5     0.02     0.03   534.61   539.16
 cp_gemm                           1292  9.8     0.00     0.01   534.11   536.23
 cp_gemm_cosma                     1292 10.8   534.10   536.23   534.10   536.23
 cp_fm_diag_elpa_base              3554 15.3   283.79   451.06   298.28   463.89
 mp_sum_d                        127204 14.8   388.00   449.90   388.00   449.90
 multiply_cannon_multrec        2782836 17.1   308.70   439.01   309.50   439.83
 qs_ks_update_qs_env_forces          92  6.0     0.00     0.00   431.79   432.09
 make_m2s                        198774 15.1     5.81     6.32   384.39   402.77
 rs_pw_transfer_PW2RS_210          4785 15.8   186.62   198.65   389.18   400.02
 qs_ot_get_derivative_diag         3065 14.0     0.10     0.12   376.27   380.43
 mp_sum_l                        476830 15.2   337.68   371.37   337.68   371.37
 qs_ot_p2m_diag                    3154 13.0     1.98     2.55   357.89   359.96
 make_images                     198774 16.1     7.82     8.28   338.44   359.91
 cp_dbcsr_syevd                    3308 13.9     0.18     0.39   321.79   322.70
 ot_diis_step                      4601 13.0     0.17     0.39   316.99   317.28
 rs_pw_transfer_RS2PW_70           4693 13.0    33.68    35.66   297.59   315.10
 cp_fm_redistribute_end            3554 15.5   229.61   297.37   231.28   300.44
 build_core_hamiltonian_matrix_      92  6.0     0.00     0.01   278.07   298.41
 -------------------------------------------------------------------------------

 The number of warnings for this run is : 2
 
 -------------------------------------------------------------------------------
  **** **** ******  **  PROGRAM ENDED AT                 2023-09-19 14:06:01.771
 ***** ** ***  *** **   PROGRAM RAN ON                               ibc11b07n06
 **    ****   ******    PROGRAM RAN BY                                     junli
 ***** **    ** ** **   PROGRAM PROCESS ID                                 83187
  **** **  *******  **  PROGRAM STOPPED IN    /WORK/junli_work/libin/1_U28/0_try
