 DBCSR| CPU Multiplication driver                                           XSMM
 DBCSR| Multrec recursion limit                                              512
 DBCSR| Multiplication stack size                                           1000
 DBCSR| Maximum elements for images                                    UNLIMITED
 DBCSR| Multiplicative factor virtual images                                   1
 DBCSR| Use multiplication densification                                       T
 DBCSR| Multiplication size stacks                                             3
 DBCSR| Use memory pool for CPU allocation                                     F
 DBCSR| Number of 3D layers                                               SINGLE
 DBCSR| Use MPI memory allocation                                              F
 DBCSR| Use RMA algorithm                                                      F
 DBCSR| Use Communication thread                                               T
 DBCSR| Communication thread load                                             87
 DBCSR| MPI: My node id                                                        0
 DBCSR| MPI: Number of nodes                                                  56
 DBCSR| OMP: Current number of threads                                         1
 DBCSR| OMP: Max number of threads                                             1
 DBCSR| Split modifier for TAS multiplication algorithm                  1.0E+00


  **** **** ******  **  PROGRAM STARTED AT               2023-09-18 10:36:06.720
 ***** ** ***  *** **   PROGRAM STARTED ON                           ibc11b07n27
 **    ****   ******    PROGRAM STARTED BY                                 junli
 ***** **    ** ** **   PROGRAM PROCESS ID                                 81526
  **** **  *******  **  PROGRAM STARTED IN    /WORK/junli_work/libin/1_U28/0_try

 CP2K| version string:                                          CP2K version 9.1
 CP2K| source code revision number:                                  git:d8d7100
 CP2K| cp2kflags: omp libint fftw3 libxc elpa parallel mpi3 scalapack cosma xsmm
 CP2K|             plumed2 spglib libvori libbqb
 CP2K| is freely available from                            https://www.cp2k.org/
 CP2K| Program compiled at                          Sun Aug 13 14:10:33 CST 2023
 CP2K| Program compiled on                                               ibcln01
 CP2K| Program compiled for                                                local
 CP2K| Data directory path                         /apps/soft/cp2k/cp2k-9.1/data
 CP2K| Input file name                                             U28-1.restart

 GLOBAL| Force Environment number                                              1
 GLOBAL| Basis set file name                                        BASIS_MOLOPT
 GLOBAL| Potential file name                                      GTH_POTENTIALS
 GLOBAL| MM Potential file name                                     MM_POTENTIAL
 GLOBAL| Coordinate file name                                          U28_0.xyz
 GLOBAL| Method name                                                        CP2K
 GLOBAL| Project name                                                        U28
 GLOBAL| Run type                                                        GEO_OPT
 GLOBAL| FFT library                                                       FFTW3
 GLOBAL| Diagonalization library                                            ELPA
 GLOBAL| Minimum number of eigenvectors for ELPA usage                        16
 GLOBAL| Orthonormality check for eigenvectors                          DISABLED
 GLOBAL| Matrix multiplication library                                     COSMA
 GLOBAL| All-to-all communication in single precision                          F
 GLOBAL| FFTs using library dependent lengths                                  F
 GLOBAL| Grid backend                                                       AUTO
 GLOBAL| Global print level                                                  LOW
 GLOBAL| MPI I/O enabled                                                       T
 GLOBAL| Total number of message passing processes                            56
 GLOBAL| Number of threads for this process                                    1
 GLOBAL| This output is from process                                           0
 GLOBAL| Stack size for threads created by OpenMP (OMP_STACKSIZE)        default
 GLOBAL| CPU model name                Intel(R) Xeon(R) Gold 6258R CPU @ 2.70GHz
 GLOBAL| CPUID                                                              1003

 MEMORY| system memory details [Kb]
 MEMORY|                        rank 0           min           max       average
 MEMORY| MemTotal            196695912     196695912     196695912     196695912
 MEMORY| MemFree             159738680     159738480     159738680     159738644
 MEMORY| Buffers                     0             0             0             0
 MEMORY| Cached                1991016       1991016       1991016       1991016
 MEMORY| Slab                 14965124      14965124      14965124      14965124
 MEMORY| SReclaimable          4904168       4904168       4904168       4904168
 MEMORY| MemLikelyFree       166633864     166633664     166633864     166633828


 *** WARNING in atoms_input.F:123 :: Overwriting coordinates. Active    ***
 *** coordinates read from &COORD section. Active coordinates READ from ***
 *** &COORD section                                                     ***


 *******************************************************************************
 *******************************************************************************
 **                                                                           **
 **     #####                         ##              ##                      **
 **    ##   ##            ##          ##              ##                      **
 **   ##     ##                       ##            ######                    **
 **   ##     ##  ##   ##  ##   #####  ##  ##   ####   ##    #####    #####    **
 **   ##     ##  ##   ##  ##  ##      ## ##   ##      ##   ##   ##  ##   ##   **
 **   ##  ## ##  ##   ##  ##  ##      ####     ###    ##   ######   ######    **
 **    ##  ###   ##   ##  ##  ##      ## ##      ##   ##   ##       ##        **
 **     #######   #####   ##   #####  ##  ##  ####    ##    #####   ##        **
 **           ##                                                    ##        **
 **                                                                           **
 **                                                ... make the atoms dance   **
 **                                                                           **
 **            Copyright (C) by CP2K developers group (2000-2021)             **
 **                      J. Chem. Phys. 152, 194103 (2020)                    **
 **                                                                           **
 *******************************************************************************


 TOTAL NUMBERS AND MAXIMUM NUMBERS

  Total number of            - Atomic kinds:                                   3
                             - Atoms:                                        196
                             - Shell sets:                                   196
                             - Shells:                                      1148
                             - Primitive Cartesian functions:               1064
                             - Cartesian basis functions:                   3948
                             - Spherical basis functions:                   3388

  Maximum angular momentum of- Orbital basis functions:                        4
                             - Local part of the GTH pseudopotential:          2
                             - Non-local part of the GTH pseudopotential:      3


 SCF PARAMETERS         Density guess:                                   RESTART
                        --------------------------------------------------------
                        max_scf:                                              50
                        max_scf_history:                                       0
                        max_diis:                                              4
                        --------------------------------------------------------
                        eps_scf:                                        1.00E-05
                        eps_scf_history:                                0.00E+00
                        eps_diis:                                       1.00E-01
                        eps_eigval:                                     1.00E-05
                        --------------------------------------------------------
                        level_shift [a.u.]:                                 0.00
                        --------------------------------------------------------
                        Outer loop SCF in use 
                        No variables optimised in outer loop
                        eps_scf                                         1.00E-05
                        max_scf                                               10
                        No outer loop optimization
                        step_size                                       5.00E-01

 BFGS| Use rational function optimization for step estimation:                NO
 BFGS| Use model Hessian for initial guess:                                  YES
 BFGS| Restart Hessian:                                                       NO
 BFGS| Trust radius:                                                       0.472

 *******************************************************************************
 ***                     STARTING GEOMETRY OPTIMIZATION                      ***
 ***                                   BFGS                                  ***
 *******************************************************************************

 Number of electrons:                                                       1484
 Number of occupied orbitals:                                                742
 Number of molecular orbitals:                                               742

 Number of orbital functions:                                               3388
 Number of independent orbital functions:                                   3388

 Extrapolation method: initial_guess


 SCF WAVEFUNCTION OPTIMIZATION

  ----------------------------------- OT ---------------------------------------
  Minimizer      : DIIS                : direct inversion
                                         in the iterative subspace
                                         using   7 DIIS vectors
                                         safer DIIS on
  Preconditioner : FULL_SINGLE         : diagonalization based
  Precond_solver : DEFAULT
  stepsize       :    0.15000000                  energy_gap     :    0.20000000
  eps_taylor     :   0.10000E-15                  max_taylor     :             4
  ----------------------------------- OT ---------------------------------------

  Step     Update method      Time    Convergence         Total energy    Change
  ------------------------------------------------------------------------------
     1 OT DIIS     0.15E+00    6.0     0.00010337     -4462.4982383314 -4.46E+03
     2 OT DIIS     0.15E+00    2.0     0.00008685     -4462.5000390541 -1.80E-03
     3 OT DIIS     0.15E+00    1.8     0.00011365     -4462.5000834578 -4.44E-05
     4 OT DIIS     0.15E+00    1.9     0.00006740     -4462.5005136296 -4.30E-04
     5 OT DIIS     0.15E+00    2.1     0.00003224     -4462.5007163817 -2.03E-04
     6 OT DIIS     0.15E+00    1.8     0.00002252     -4462.5007794983 -6.31E-05
     7 OT DIIS     0.15E+00    1.9     0.00001762     -4462.5008311929 -5.17E-05
     8 OT DIIS     0.15E+00    1.8     0.00001356     -4462.5008800431 -4.89E-05
     9 OT DIIS     0.15E+00    2.0     0.00001279     -4462.5009201538 -4.01E-05
    10 OT DIIS     0.15E+00    2.0     0.00001238     -4462.5009716996 -5.15E-05
    11 OT DIIS     0.15E+00    2.0     0.00001151     -4462.5010260263 -5.43E-05
    12 OT DIIS     0.15E+00    2.0     0.00001172     -4462.5010826584 -5.66E-05
    13 OT DIIS     0.15E+00    1.9     0.00001141     -4462.5011405358 -5.79E-05
    14 OT DIIS     0.15E+00    2.0     0.00001096     -4462.5012032151 -6.27E-05
    15 OT DIIS     0.15E+00    2.0     0.00001092     -4462.5012685285 -6.53E-05
    16 OT DIIS     0.15E+00    1.9     0.00001067     -4462.5013520918 -8.36E-05
    17 OT DIIS     0.15E+00    1.9     0.00001036     -4462.5014572127 -1.05E-04
    18 OT DIIS     0.15E+00    1.9     0.00001041     -4462.5015689907 -1.12E-04
    19 OT DIIS     0.15E+00    2.0     0.00001021     -4462.5017060703 -1.37E-04
    20 OT DIIS     0.15E+00    1.9     0.00000996     -4462.5018362781 -1.30E-04

  *** SCF run converged in    20 steps ***


  Electronic density on regular grids:      -1483.9999997136        0.0000002864
  Core density on regular grids:             1483.9999999308       -0.0000000692
  Total charge density on r-space grids:        0.0000002172
  Total charge density g-space grids:           0.0000002172

  Overlap energy of the core charge distribution:               0.00000248647786
  Self energy of the core charge distribution:             -10331.29031661960289
  Core Hamiltonian energy:                                   2680.44666509719627
  Hartree energy:                                            3975.57107873863606
  Exchange-correlation energy:                               -786.53691643893785
  Dispersion energy:                                           -0.69234954183100

  Total energy:                                             -4462.50183627806109

  outer SCF iter =    1 RMS gradient =   0.10E-04 energy =      -4462.5018362781
  outer SCF loop converged in   1 iterations or   20 steps


 ENERGY| Total FORCE_EVAL ( QS ) energy [a.u.]:            -4462.501975565798602

 --------  Informations at step =   144 ------------
  Optimization Method        =                 BFGS
  Total Energy               =     -4462.5019755658
  Used time                  =               51.783

 --------------------------
 OPTIMIZATION STEP:    145
 --------------------------

 Number of electrons:                                                       1484
 Number of occupied orbitals:                                                742
 Number of molecular orbitals:                                               742

 Number of orbital functions:                                               3388
 Number of independent orbital functions:                                   3388

 Extrapolation method: ASPC


 SCF WAVEFUNCTION OPTIMIZATION

  ----------------------------------- OT ---------------------------------------
  Minimizer      : DIIS                : direct inversion
                                         in the iterative subspace
                                         using   7 DIIS vectors
                                         safer DIIS on
  Preconditioner : FULL_SINGLE         : diagonalization based
  Precond_solver : DEFAULT
  stepsize       :    0.15000000                  energy_gap     :    0.20000000
  eps_taylor     :   0.10000E-15                  max_taylor     :             4
  ----------------------------------- OT ---------------------------------------

  Step     Update method      Time    Convergence         Total energy    Change
  ------------------------------------------------------------------------------
     1 OT DIIS     0.15E+00    5.8     0.00018037     -4462.4958950480 -4.46E+03
     2 OT DIIS     0.15E+00    1.9     0.00014229     -4462.5017168183 -5.82E-03
     3 OT DIIS     0.15E+00    2.1     0.00020507     -4462.5014805181  2.36E-04
     4 OT DIIS     0.15E+00    2.1     0.00010621     -4462.5029303780 -1.45E-03
     5 OT DIIS     0.15E+00    2.0     0.00004712     -4462.5034161334 -4.86E-04
     6 OT DIIS     0.15E+00    2.0     0.00002896     -4462.5035251469 -1.09E-04
     7 OT DIIS     0.15E+00    2.0     0.00002390     -4462.5035877956 -6.26E-05
     8 OT DIIS     0.15E+00    2.0     0.00001435     -4462.5036383474 -5.06E-05
     9 OT DIIS     0.15E+00    2.0     0.00001245     -4462.5036721211 -3.38E-05
    10 OT DIIS     0.15E+00    2.0     0.00001208     -4462.5037139854 -4.19E-05
    11 OT DIIS     0.15E+00    1.8     0.00001052     -4462.5037477908 -3.38E-05
    12 OT DIIS     0.15E+00    1.9     0.00001073     -4462.5037841062 -3.63E-05
    13 OT DIIS     0.15E+00    2.0     0.00001009     -4462.5038202986 -3.62E-05
    14 OT DIIS     0.15E+00    2.3     0.00000946     -4462.5038576395 -3.73E-05

  *** SCF run converged in    14 steps ***


  Electronic density on regular grids:      -1483.9999997084        0.0000002916
  Core density on regular grids:             1483.9999999308       -0.0000000692
  Total charge density on r-space grids:        0.0000002224
  Total charge density g-space grids:           0.0000002224

  Overlap energy of the core charge distribution:               0.00000245640410
  Self energy of the core charge distribution:             -10331.29031661960289
  Core Hamiltonian energy:                                   2680.33091358019738
  Hartree energy:                                            3975.65519796190847
  Exchange-correlation energy:                               -786.50729277829168
  Dispersion energy:                                           -0.69236224010816

  Total energy:                                             -4462.50385763949362

  outer SCF iter =    1 RMS gradient =   0.95E-05 energy =      -4462.5038576395
  outer SCF loop converged in   1 iterations or   14 steps


 ENERGY| Total FORCE_EVAL ( QS ) energy [a.u.]:            -4462.503894473195032

 --------  Informations at step =   145 ------------
  Optimization Method        =                 BFGS
  Total Energy               =     -4462.5038944732
  Real energy change         =        -0.0019189074
  Predicted change in energy =        -0.0023280367
  Scaling factor             =         0.0000000000
  Step size                  =         0.0495996379
  Trust radius               =         0.4724315332
  Decrease in energy         =                  YES
  Used time                  =               41.545

  Convergence check :
  Max. step size             =         0.0495996379
  Conv. limit for step size  =         0.0030000000
  Convergence in step size   =                   NO
  RMS step size              =         0.0084941298
  Conv. limit for RMS step   =         0.0015000000
  Convergence in RMS step    =                   NO
  Max. gradient              =         0.0078392007
  Conv. limit for gradients  =         0.0004500000
  Conv. for gradients        =                   NO
  RMS gradient               =         0.0009918645
  Conv. limit for RMS grad.  =         0.0003000000
  Conv. for gradients        =                   NO
 ---------------------------------------------------

 --------------------------
 OPTIMIZATION STEP:    146
 --------------------------

 Number of electrons:                                                       1484
 Number of occupied orbitals:                                                742
 Number of molecular orbitals:                                               742

 Number of orbital functions:                                               3388
 Number of independent orbital functions:                                   3388

 Extrapolation method: ASPC


 SCF WAVEFUNCTION OPTIMIZATION

  ----------------------------------- OT ---------------------------------------
  Minimizer      : DIIS                : direct inversion
                                         in the iterative subspace
                                         using   7 DIIS vectors
                                         safer DIIS on
  Preconditioner : FULL_SINGLE         : diagonalization based
  Precond_solver : DEFAULT
  stepsize       :    0.15000000                  energy_gap     :    0.20000000
  eps_taylor     :   0.10000E-15                  max_taylor     :             4
  ----------------------------------- OT ---------------------------------------

  Step     Update method      Time    Convergence         Total energy    Change
  ------------------------------------------------------------------------------
     1 OT DIIS     0.15E+00    5.7     0.00019756     -4462.4969989507 -4.46E+03
     2 OT DIIS     0.15E+00    1.7     0.00019946     -4462.5031073278 -6.11E-03
     3 OT DIIS     0.15E+00    1.9     0.00025927     -4462.5028580842  2.49E-04
     4 OT DIIS     0.15E+00    1.9     0.00011638     -4462.5049954328 -2.14E-03
     5 OT DIIS     0.15E+00    2.0     0.00005409     -4462.5055853143 -5.90E-04
     6 OT DIIS     0.15E+00    2.0     0.00003163     -4462.5057187162 -1.33E-04
     7 OT DIIS     0.15E+00    2.0     0.00002525     -4462.5057746372 -5.59E-05
     8 OT DIIS     0.15E+00    2.0     0.00001317     -4462.5058237912 -4.92E-05
     9 OT DIIS     0.15E+00    2.0     0.00001198     -4462.5058501883 -2.64E-05
    10 OT DIIS     0.15E+00    2.0     0.00001113     -4462.5058780379 -2.78E-05
    11 OT DIIS     0.15E+00    2.0     0.00000946     -4462.5059035810 -2.55E-05

  *** SCF run converged in    11 steps ***


  Electronic density on regular grids:      -1483.9999997085        0.0000002915
  Core density on regular grids:             1483.9999999307       -0.0000000693
  Total charge density on r-space grids:        0.0000002222
  Total charge density g-space grids:           0.0000002222

  Overlap energy of the core charge distribution:               0.00000245639348
  Self energy of the core charge distribution:             -10331.29031661960289
  Core Hamiltonian energy:                                   2680.31451884005492
  Hartree energy:                                            3975.66717067801119
  Exchange-correlation energy:                               -786.50485367555200
  Dispersion energy:                                           -0.69242526035507

  Total energy:                                             -4462.50590358104910

  outer SCF iter =    1 RMS gradient =   0.95E-05 energy =      -4462.5059035810
  outer SCF loop converged in   1 iterations or   11 steps


 ENERGY| Total FORCE_EVAL ( QS ) energy [a.u.]:            -4462.505924988488914

 --------  Informations at step =   146 ------------
  Optimization Method        =                 BFGS
  Total Energy               =     -4462.5059249885
  Real energy change         =        -0.0020305153
  Predicted change in energy =        -0.0014066686
  Scaling factor             =         0.0000000000
  Step size                  =         0.0805266886
  Trust radius               =         0.4724315332
  Decrease in energy         =                  YES
  Used time                  =               35.349

  Convergence check :
  Max. step size             =         0.0805266886
  Conv. limit for step size  =         0.0030000000
  Convergence in step size   =                   NO
  RMS step size              =         0.0067686216
  Conv. limit for RMS step   =         0.0015000000
  Convergence in RMS step    =                   NO
  Max. gradient              =         0.0046570954
  Conv. limit for gradients  =         0.0004500000
  Conv. for gradients        =                   NO
  RMS gradient               =         0.0007572681
  Conv. limit for RMS grad.  =         0.0003000000
  Conv. for gradients        =                   NO
 ---------------------------------------------------

 --------------------------
 OPTIMIZATION STEP:    147
 --------------------------

 Number of electrons:                                                       1484
 Number of occupied orbitals:                                                742
 Number of molecular orbitals:                                               742

 Number of orbital functions:                                               3388
 Number of independent orbital functions:                                   3388

 Extrapolation method: ASPC


 SCF WAVEFUNCTION OPTIMIZATION

  ----------------------------------- OT ---------------------------------------
  Minimizer      : DIIS                : direct inversion
                                         in the iterative subspace
                                         using   7 DIIS vectors
                                         safer DIIS on
  Preconditioner : FULL_SINGLE         : diagonalization based
  Precond_solver : DEFAULT
  stepsize       :    0.15000000                  energy_gap     :    0.20000000
  eps_taylor     :   0.10000E-15                  max_taylor     :             4
  ----------------------------------- OT ---------------------------------------

  Step     Update method      Time    Convergence         Total energy    Change
  ------------------------------------------------------------------------------
     1 OT DIIS     0.15E+00    5.8     0.00013563     -4462.5035216723 -4.46E+03
     2 OT DIIS     0.15E+00    1.9     0.00013607     -4462.5063753837 -2.85E-03
     3 OT DIIS     0.15E+00    1.8     0.00017853     -4462.5062588075  1.17E-04
     4 OT DIIS     0.15E+00    2.0     0.00007977     -4462.5072772868 -1.02E-03
     5 OT DIIS     0.15E+00    2.0     0.00003732     -4462.5075567907 -2.80E-04
     6 OT DIIS     0.15E+00    2.0     0.00002425     -4462.5076233260 -6.65E-05
     7 OT DIIS     0.15E+00    2.2     0.00001808     -4462.5076566972 -3.34E-05
     8 OT DIIS     0.15E+00    2.1     0.00001106     -4462.5076837962 -2.71E-05
     9 OT DIIS     0.15E+00    2.0     0.00000986     -4462.5077008415 -1.70E-05

  *** SCF run converged in     9 steps ***


  Electronic density on regular grids:      -1483.9999997060        0.0000002940
  Core density on regular grids:             1483.9999999307       -0.0000000693
  Total charge density on r-space grids:        0.0000002247
  Total charge density g-space grids:           0.0000002247

  Overlap energy of the core charge distribution:               0.00000247990385
  Self energy of the core charge distribution:             -10331.29031661960289
  Core Hamiltonian energy:                                   2680.37414685346812
  Hartree energy:                                            3975.62372746294250
  Exchange-correlation energy:                               -786.52267640092782
  Dispersion energy:                                           -0.69258461727601

  Total energy:                                             -4462.50770084149190

  outer SCF iter =    1 RMS gradient =   0.99E-05 energy =      -4462.5077008415
  outer SCF loop converged in   1 iterations or    9 steps


 ENERGY| Total FORCE_EVAL ( QS ) energy [a.u.]:            -4462.507718964991000

 --------  Informations at step =   147 ------------
  Optimization Method        =                 BFGS
  Total Energy               =     -4462.5077189650
  Real energy change         =        -0.0017939765
  Predicted change in energy =        -0.0011775686
  Scaling factor             =         0.0000000000
  Step size                  =         0.0595614170
  Trust radius               =         0.4724315332
  Decrease in energy         =                  YES
  Used time                  =               31.591

  Convergence check :
  Max. step size             =         0.0595614170
  Conv. limit for step size  =         0.0030000000
  Convergence in step size   =                   NO
  RMS step size              =         0.0073980616
  Conv. limit for RMS step   =         0.0015000000
  Convergence in RMS step    =                   NO
  Max. gradient              =         0.0052634416
  Conv. limit for gradients  =         0.0004500000
  Conv. for gradients        =                   NO
  RMS gradient               =         0.0007869415
  Conv. limit for RMS grad.  =         0.0003000000
  Conv. for gradients        =                   NO
 ---------------------------------------------------

 --------------------------
 OPTIMIZATION STEP:    148
 --------------------------

 Number of electrons:                                                       1484
 Number of occupied orbitals:                                                742
 Number of molecular orbitals:                                               742

 Number of orbital functions:                                               3388
 Number of independent orbital functions:                                   3388

 Extrapolation method: ASPC


 SCF WAVEFUNCTION OPTIMIZATION

  ----------------------------------- OT ---------------------------------------
  Minimizer      : DIIS                : direct inversion
                                         in the iterative subspace
                                         using   7 DIIS vectors
                                         safer DIIS on
  Preconditioner : FULL_SINGLE         : diagonalization based
  Precond_solver : DEFAULT
  stepsize       :    0.15000000                  energy_gap     :    0.20000000
  eps_taylor     :   0.10000E-15                  max_taylor     :             4
  ----------------------------------- OT ---------------------------------------

  Step     Update method      Time    Convergence         Total energy    Change
  ------------------------------------------------------------------------------
     1 OT DIIS     0.15E+00    6.1     0.00015856     -4462.5034246848 -4.46E+03
     2 OT DIIS     0.15E+00    2.1     0.00015999     -4462.5072838724 -3.86E-03
     3 OT DIIS     0.15E+00    1.8     0.00020874     -4462.5071111422  1.73E-04
     4 OT DIIS     0.15E+00    2.0     0.00009572     -4462.5084884907 -1.38E-03
     5 OT DIIS     0.15E+00    1.9     0.00004842     -4462.5088582159 -3.70E-04
     6 OT DIIS     0.15E+00    2.1     0.00003229     -4462.5089431310 -8.49E-05
     7 OT DIIS     0.15E+00    1.9     0.00001840     -4462.5089948297 -5.17E-05
     8 OT DIIS     0.15E+00    2.0     0.00001216     -4462.5090216669 -2.68E-05
     9 OT DIIS     0.15E+00    2.0     0.00001007     -4462.5090384008 -1.67E-05
    10 OT DIIS     0.15E+00    2.0     0.00000851     -4462.5090545567 -1.62E-05

  *** SCF run converged in    10 steps ***


  Electronic density on regular grids:      -1483.9999997097        0.0000002903
  Core density on regular grids:             1483.9999999307       -0.0000000693
  Total charge density on r-space grids:        0.0000002210
  Total charge density g-space grids:           0.0000002210

  Overlap energy of the core charge distribution:               0.00000251221362
  Self energy of the core charge distribution:             -10331.29031661960289
  Core Hamiltonian energy:                                   2680.48079501949996
  Hartree energy:                                            3975.54516038071279
  Exchange-correlation energy:                               -786.55189305930890
  Dispersion energy:                                           -0.69280279019425

  Total energy:                                             -4462.50905455667998

  outer SCF iter =    1 RMS gradient =   0.85E-05 energy =      -4462.5090545567
  outer SCF loop converged in   1 iterations or   10 steps


 ENERGY| Total FORCE_EVAL ( QS ) energy [a.u.]:            -4462.509069951144738

 --------  Informations at step =   148 ------------
  Optimization Method        =                 BFGS
  Total Energy               =     -4462.5090699511
  Real energy change         =        -0.0013509862
  Predicted change in energy =        -0.0011357436
  Scaling factor             =         0.0000000000
  Step size                  =         0.0979433533
  Trust radius               =         0.4724315332
  Decrease in energy         =                  YES
  Used time                  =               33.854

  Convergence check :
  Max. step size             =         0.0979433533
  Conv. limit for step size  =         0.0030000000
  Convergence in step size   =                   NO
  RMS step size              =         0.0092412944
  Conv. limit for RMS step   =         0.0015000000
  Convergence in RMS step    =                   NO
  Max. gradient              =         0.0074308226
  Conv. limit for gradients  =         0.0004500000
  Conv. for gradients        =                   NO
  RMS gradient               =         0.0008819397
  Conv. limit for RMS grad.  =         0.0003000000
  Conv. for gradients        =                   NO
 ---------------------------------------------------

 --------------------------
 OPTIMIZATION STEP:    149
 --------------------------

 Number of electrons:                                                       1484
 Number of occupied orbitals:                                                742
 Number of molecular orbitals:                                               742

 Number of orbital functions:                                               3388
 Number of independent orbital functions:                                   3388

 Extrapolation method: ASPC


 SCF WAVEFUNCTION OPTIMIZATION

  ----------------------------------- OT ---------------------------------------
  Minimizer      : DIIS                : direct inversion
                                         in the iterative subspace
                                         using   7 DIIS vectors
                                         safer DIIS on
  Preconditioner : FULL_SINGLE         : diagonalization based
  Precond_solver : DEFAULT
  stepsize       :    0.15000000                  energy_gap     :    0.20000000
  eps_taylor     :   0.10000E-15                  max_taylor     :             4
  ----------------------------------- OT ---------------------------------------

  Step     Update method      Time    Convergence         Total energy    Change
  ------------------------------------------------------------------------------
     1 OT DIIS     0.15E+00    6.5     0.00019275     -4462.5027544679 -4.46E+03
     2 OT DIIS     0.15E+00    2.1     0.00024688     -4462.5074054393 -4.65E-03
     3 OT DIIS     0.15E+00    2.1     0.00024315     -4462.5082497073 -8.44E-04
     4 OT DIIS     0.15E+00    2.0     0.00012507     -4462.5099808560 -1.73E-03
     5 OT DIIS     0.15E+00    2.4     0.00006020     -4462.5106319084 -6.51E-04
     6 OT DIIS     0.15E+00    2.0     0.00003874     -4462.5107713394 -1.39E-04
     7 OT DIIS     0.15E+00    1.9     0.00002343     -4462.5108396124 -6.83E-05
     8 OT DIIS     0.15E+00    2.0     0.00001576     -4462.5108764362 -3.68E-05
     9 OT DIIS     0.15E+00    2.3     0.00001160     -4462.5108962309 -1.98E-05
    10 OT DIIS     0.15E+00    2.0     0.00000953     -4462.5109129310 -1.67E-05

  *** SCF run converged in    10 steps ***


  Electronic density on regular grids:      -1483.9999997093        0.0000002907
  Core density on regular grids:             1483.9999999308       -0.0000000692
  Total charge density on r-space grids:        0.0000002215
  Total charge density g-space grids:           0.0000002215

  Overlap energy of the core charge distribution:               0.00000251248956
  Self energy of the core charge distribution:             -10331.29031661960289
  Core Hamiltonian energy:                                   2680.49112976212655
  Hartree energy:                                            3975.53699804284042
  Exchange-correlation energy:                               -786.55583398268482
  Dispersion energy:                                           -0.69289264615472

  Total energy:                                             -4462.51091293098580

  outer SCF iter =    1 RMS gradient =   0.95E-05 energy =      -4462.5109129310
  outer SCF loop converged in   1 iterations or   10 steps


 ENERGY| Total FORCE_EVAL ( QS ) energy [a.u.]:            -4462.510928393550785

 --------  Informations at step =   149 ------------
  Optimization Method        =                 BFGS
  Total Energy               =     -4462.5109283936
  Real energy change         =        -0.0018584424
  Predicted change in energy =        -0.0010847868
  Scaling factor             =         0.0000000000
  Step size                  =         0.0760176642
  Trust radius               =         0.4724315332
  Decrease in energy         =                  YES
  Used time                  =               35.483

  Convergence check :
  Max. step size             =         0.0760176642
  Conv. limit for step size  =         0.0030000000
  Convergence in step size   =                   NO
  RMS step size              =         0.0062325464
  Conv. limit for RMS step   =         0.0015000000
  Convergence in RMS step    =                   NO
  Max. gradient              =         0.0062597617
  Conv. limit for gradients  =         0.0004500000
  Conv. for gradients        =                   NO
  RMS gradient               =         0.0006698188
  Conv. limit for RMS grad.  =         0.0003000000
  Conv. for gradients        =                   NO
 ---------------------------------------------------

 --------------------------
 OPTIMIZATION STEP:    150
 --------------------------

 Number of electrons:                                                       1484
 Number of occupied orbitals:                                                742
 Number of molecular orbitals:                                               742

 Number of orbital functions:                                               3388
 Number of independent orbital functions:                                   3388

 Extrapolation method: ASPC


 SCF WAVEFUNCTION OPTIMIZATION

  ----------------------------------- OT ---------------------------------------
  Minimizer      : DIIS                : direct inversion
                                         in the iterative subspace
                                         using   7 DIIS vectors
                                         safer DIIS on
  Preconditioner : FULL_SINGLE         : diagonalization based
  Precond_solver : DEFAULT
  stepsize       :    0.15000000                  energy_gap     :    0.20000000
  eps_taylor     :   0.10000E-15                  max_taylor     :             4
  ----------------------------------- OT ---------------------------------------

  Step     Update method      Time    Convergence         Total energy    Change
  ------------------------------------------------------------------------------
     1 OT DIIS     0.15E+00    6.3     0.00017274     -4462.5054886226 -4.46E+03
     2 OT DIIS     0.15E+00    2.1     0.00024341     -4462.5084236264 -2.94E-03
     3 OT DIIS     0.15E+00    2.5     0.00020102     -4462.5097702741 -1.35E-03
     4 OT DIIS     0.15E+00    2.2     0.00011963     -4462.5108585867 -1.09E-03
     5 OT DIIS     0.15E+00    1.9     0.00005060     -4462.5114430075 -5.84E-04
     6 OT DIIS     0.15E+00    2.0     0.00003350     -4462.5115556849 -1.13E-04
     7 OT DIIS     0.15E+00    2.0     0.00002285     -4462.5116091661 -5.35E-05
     8 OT DIIS     0.15E+00    2.1     0.00001429     -4462.5116438702 -3.47E-05
     9 OT DIIS     0.15E+00    2.4     0.00001127     -4462.5116643398 -2.05E-05
    10 OT DIIS     0.15E+00    2.1     0.00000976     -4462.5116816534 -1.73E-05

  *** SCF run converged in    10 steps ***


  Electronic density on regular grids:      -1483.9999997127        0.0000002873
  Core density on regular grids:             1483.9999999308       -0.0000000692
  Total charge density on r-space grids:        0.0000002180
  Total charge density g-space grids:           0.0000002180

  Overlap energy of the core charge distribution:               0.00000248683842
  Self energy of the core charge distribution:             -10331.29031661960289
  Core Hamiltonian energy:                                   2680.44845571245150
  Hartree energy:                                            3975.56830883462953
  Exchange-correlation energy:                               -786.54522617293082
  Dispersion energy:                                           -0.69290589474655

  Total energy:                                             -4462.51168165336003

  outer SCF iter =    1 RMS gradient =   0.98E-05 energy =      -4462.5116816534
  outer SCF loop converged in   1 iterations or   10 steps


 ENERGY| Total FORCE_EVAL ( QS ) energy [a.u.]:            -4462.511698296028953

 --------  Informations at step =   150 ------------
  Optimization Method        =                 BFGS
  Total Energy               =     -4462.5116982960
  Real energy change         =        -0.0007699025
  Predicted change in energy =        -0.0009749092
  Scaling factor             =         0.0000000000
  Step size                  =         0.0851190369
  Trust radius               =         0.4724315332
  Decrease in energy         =                  YES
  Used time                  =               35.704

  Convergence check :
  Max. step size             =         0.0851190369
  Conv. limit for step size  =         0.0030000000
  Convergence in step size   =                   NO
  RMS step size              =         0.0071445775
  Conv. limit for RMS step   =         0.0015000000
  Convergence in RMS step    =                   NO
  Max. gradient              =         0.0047607071
  Conv. limit for gradients  =         0.0004500000
  Conv. for gradients        =                   NO
  RMS gradient               =         0.0006955349
  Conv. limit for RMS grad.  =         0.0003000000
  Conv. for gradients        =                   NO
 ---------------------------------------------------

 --------------------------
 OPTIMIZATION STEP:    151
 --------------------------

 Number of electrons:                                                       1484
 Number of occupied orbitals:                                                742
 Number of molecular orbitals:                                               742

 Number of orbital functions:                                               3388
 Number of independent orbital functions:                                   3388

 Extrapolation method: ASPC


 SCF WAVEFUNCTION OPTIMIZATION

  ----------------------------------- OT ---------------------------------------
  Minimizer      : DIIS                : direct inversion
                                         in the iterative subspace
                                         using   7 DIIS vectors
                                         safer DIIS on
  Preconditioner : FULL_SINGLE         : diagonalization based
  Precond_solver : DEFAULT
  stepsize       :    0.15000000                  energy_gap     :    0.20000000
  eps_taylor     :   0.10000E-15                  max_taylor     :             4
  ----------------------------------- OT ---------------------------------------

  Step     Update method      Time    Convergence         Total energy    Change
  ------------------------------------------------------------------------------
     1 OT DIIS     0.15E+00    5.9     0.00019891     -4462.5042321316 -4.46E+03
     2 OT DIIS     0.15E+00    2.3     0.00027562     -4462.5084027226 -4.17E-03
     3 OT DIIS     0.15E+00    2.2     0.00023619     -4462.5100105553 -1.61E-03
     4 OT DIIS     0.15E+00    1.8     0.00013712     -4462.5115245964 -1.51E-03
     5 OT DIIS     0.15E+00    1.8     0.00005551     -4462.5123180781 -7.93E-04
     6 OT DIIS     0.15E+00    2.0     0.00003481     -4462.5124673524 -1.49E-04
     7 OT DIIS     0.15E+00    2.2     0.00002452     -4462.5125319547 -6.46E-05
     8 OT DIIS     0.15E+00    2.2     0.00001432     -4462.5125770061 -4.51E-05
     9 OT DIIS     0.15E+00    2.0     0.00001206     -4462.5126020414 -2.50E-05
    10 OT DIIS     0.15E+00    2.0     0.00001067     -4462.5126244132 -2.24E-05
    11 OT DIIS     0.15E+00    2.0     0.00000902     -4462.5126449473 -2.05E-05

  *** SCF run converged in    11 steps ***


  Electronic density on regular grids:      -1483.9999997099        0.0000002901
  Core density on regular grids:             1483.9999999308       -0.0000000692
  Total charge density on r-space grids:        0.0000002209
  Total charge density g-space grids:           0.0000002209

  Overlap energy of the core charge distribution:               0.00000248351336
  Self energy of the core charge distribution:             -10331.29031661960289
  Core Hamiltonian energy:                                   2680.42046133207532
  Hartree energy:                                            3975.58871228187809
  Exchange-correlation energy:                               -786.53862355766319
  Dispersion energy:                                           -0.69288086751337

  Total energy:                                             -4462.51264494731186

  outer SCF iter =    1 RMS gradient =   0.90E-05 energy =      -4462.5126449473
  outer SCF loop converged in   1 iterations or   11 steps


 ENERGY| Total FORCE_EVAL ( QS ) energy [a.u.]:            -4462.512661670925809

 --------  Informations at step =   151 ------------
  Optimization Method        =                 BFGS
  Total Energy               =     -4462.5126616709
  Real energy change         =        -0.0009633749
  Predicted change in energy =        -0.0006406218
  Scaling factor             =         0.0000000000
  Step size                  =         0.0417427324
  Trust radius               =         0.4724315332
  Decrease in energy         =                  YES
  Used time                  =               35.348

  Convergence check :
  Max. step size             =         0.0417427324
  Conv. limit for step size  =         0.0030000000
  Convergence in step size   =                   NO
  RMS step size              =         0.0045522579
  Conv. limit for RMS step   =         0.0015000000
  Convergence in RMS step    =                   NO
  Max. gradient              =         0.0050602925
  Conv. limit for gradients  =         0.0004500000
  Conv. for gradients        =                   NO
  RMS gradient               =         0.0006369962
  Conv. limit for RMS grad.  =         0.0003000000
  Conv. for gradients        =                   NO
 ---------------------------------------------------

 --------------------------
 OPTIMIZATION STEP:    152
 --------------------------

 Number of electrons:                                                       1484
 Number of occupied orbitals:                                                742
 Number of molecular orbitals:                                               742

 Number of orbital functions:                                               3388
 Number of independent orbital functions:                                   3388

 Extrapolation method: ASPC


 SCF WAVEFUNCTION OPTIMIZATION

  ----------------------------------- OT ---------------------------------------
  Minimizer      : DIIS                : direct inversion
                                         in the iterative subspace
                                         using   7 DIIS vectors
                                         safer DIIS on
  Preconditioner : FULL_SINGLE         : diagonalization based
  Precond_solver : DEFAULT
  stepsize       :    0.15000000                  energy_gap     :    0.20000000
  eps_taylor     :   0.10000E-15                  max_taylor     :             4
  ----------------------------------- OT ---------------------------------------

  Step     Update method      Time    Convergence         Total energy    Change
  ------------------------------------------------------------------------------
     1 OT DIIS     0.15E+00    6.4     0.00025188     -4462.4974029436 -4.46E+03
     2 OT DIIS     0.15E+00    2.2     0.00020589     -4462.5079656004 -1.06E-02
     3 OT DIIS     0.15E+00    1.9     0.00026356     -4462.5082578877 -2.92E-04
     4 OT DIIS     0.15E+00    2.1     0.00015398     -4462.5106936264 -2.44E-03
     5 OT DIIS     0.15E+00    2.1     0.00007378     -4462.5116421946 -9.49E-04
     6 OT DIIS     0.15E+00    2.2     0.00004992     -4462.5119201248 -2.78E-04
     7 OT DIIS     0.15E+00    2.1     0.00003209     -4462.5120821737 -1.62E-04
     8 OT DIIS     0.15E+00    2.0     0.00002374     -4462.5121661828 -8.40E-05
     9 OT DIIS     0.15E+00    2.0     0.00001841     -4462.5122290543 -6.29E-05
    10 OT DIIS     0.15E+00    2.1     0.00001609     -4462.5122764279 -4.74E-05
    11 OT DIIS     0.15E+00    2.1     0.00001326     -4462.5123116333 -3.52E-05
    12 OT DIIS     0.15E+00    2.2     0.00001252     -4462.5123427376 -3.11E-05
    13 OT DIIS     0.15E+00    2.1     0.00001079     -4462.5123652956 -2.26E-05
    14 OT DIIS     0.15E+00    2.0     0.00000944     -4462.5123830948 -1.78E-05

  *** SCF run converged in    14 steps ***


  Electronic density on regular grids:      -1483.9999997232        0.0000002768
  Core density on regular grids:             1483.9999999308       -0.0000000692
  Total charge density on r-space grids:        0.0000002076
  Total charge density g-space grids:           0.0000002076

  Overlap energy of the core charge distribution:               0.00000249663280
  Self energy of the core charge distribution:             -10331.29031661960289
  Core Hamiltonian energy:                                   2680.37934863843930
  Hartree energy:                                            3975.61853295997935
  Exchange-correlation energy:                               -786.52700957741558
  Dispersion energy:                                           -0.69294099284769

  Total energy:                                             -4462.51238309481596

  outer SCF iter =    1 RMS gradient =   0.94E-05 energy =      -4462.5123830948
  outer SCF loop converged in   1 iterations or   14 steps


 ENERGY| Total FORCE_EVAL ( QS ) energy [a.u.]:            -4462.512400405281369

 --------  Informations at step =   152 ------------
  Optimization Method        =                 BFGS
  Total Energy               =     -4462.5124004053
  Real energy change         =         0.0002612656
  Predicted change in energy =        -0.0017486960
  Scaling factor             =         0.0000000000
  Step size                  =         0.2165117243
  Trust radius               =         0.4724315332
  Decrease in energy         =                   NO
  Used time                  =               42.450

  Convergence check :
  Max. step size             =         0.2165117243
  Conv. limit for step size  =         0.0030000000
  Convergence in step size   =                   NO
  RMS step size              =         0.0168047295
  Conv. limit for RMS step   =         0.0015000000
  Convergence in RMS step    =                   NO
  Max. gradient              =         0.0108230528
  Conv. limit for gradients  =         0.0004500000
  Conv. for gradients        =                   NO
  RMS gradient               =         0.0013713191
  Conv. limit for RMS grad.  =         0.0003000000
  Conv. for gradients        =                   NO
 ---------------------------------------------------

 --------------------------
 OPTIMIZATION STEP:    153
 --------------------------

 Number of electrons:                                                       1484
 Number of occupied orbitals:                                                742
 Number of molecular orbitals:                                               742

 Number of orbital functions:                                               3388
 Number of independent orbital functions:                                   3388

 Extrapolation method: ASPC


 SCF WAVEFUNCTION OPTIMIZATION

  ----------------------------------- OT ---------------------------------------
  Minimizer      : DIIS                : direct inversion
                                         in the iterative subspace
                                         using   7 DIIS vectors
                                         safer DIIS on
  Preconditioner : FULL_SINGLE         : diagonalization based
  Precond_solver : DEFAULT
  stepsize       :    0.15000000                  energy_gap     :    0.20000000
  eps_taylor     :   0.10000E-15                  max_taylor     :             4
  ----------------------------------- OT ---------------------------------------

  Step     Update method      Time    Convergence         Total energy    Change
  ------------------------------------------------------------------------------
     1 OT DIIS     0.15E+00    6.2     0.00057553     -4462.4412274096 -4.46E+03
     2 OT DIIS     0.15E+00    2.2     0.00053859     -4462.4907798051 -4.96E-02
     3 OT DIIS     0.15E+00    2.2     0.00076855     -4462.4876634422  3.12E-03
     4 OT DIIS     0.15E+00    2.1     0.00032015     -4462.5063324310 -1.87E-02
     5 OT DIIS     0.15E+00    2.1     0.00014777     -4462.5110349175 -4.70E-03
     6 OT DIIS     0.15E+00    1.9     0.00012789     -4462.5121013876 -1.07E-03
     7 OT DIIS     0.15E+00    2.3     0.00006731     -4462.5130322978 -9.31E-04
     8 OT DIIS     0.15E+00    2.0     0.00005208     -4462.5134174572 -3.85E-04
     9 OT DIIS     0.15E+00    1.9     0.00004412     -4462.5136967698 -2.79E-04
    10 OT DIIS     0.15E+00    2.1     0.00003282     -4462.5138799831 -1.83E-04
    11 OT DIIS     0.15E+00    1.9     0.00003023     -4462.5139906542 -1.11E-04
    12 OT DIIS     0.15E+00    2.2     0.00002937     -4462.5140574476 -6.68E-05
    13 OT DIIS     0.15E+00    2.3     0.00001816     -4462.5141206606 -6.32E-05
    14 OT DIIS     0.15E+00    2.4     0.00001628     -4462.5141476467 -2.70E-05
    15 OT DIIS     0.15E+00    2.1     0.00001487     -4462.5141663135 -1.87E-05
    16 OT DIIS     0.15E+00    1.9     0.00001106     -4462.5141883131 -2.20E-05
    17 OT DIIS     0.15E+00    2.4     0.00001071     -4462.5142004123 -1.21E-05
    18 OT DIIS     0.15E+00    2.3     0.00000971     -4462.5142134827 -1.31E-05

  *** SCF run converged in    18 steps ***


  Electronic density on regular grids:      -1483.9999997149        0.0000002851
  Core density on regular grids:             1483.9999999307       -0.0000000693
  Total charge density on r-space grids:        0.0000002159
  Total charge density g-space grids:           0.0000002159

  Overlap energy of the core charge distribution:               0.00000249792660
  Self energy of the core charge distribution:             -10331.29031661960289
  Core Hamiltonian energy:                                   2680.38626267820473
  Hartree energy:                                            3975.61265240217654
  Exchange-correlation energy:                               -786.52988555309355
  Dispersion energy:                                           -0.69292888828422

  Total energy:                                             -4462.51421348267195

  outer SCF iter =    1 RMS gradient =   0.97E-05 energy =      -4462.5142134827
  outer SCF loop converged in   1 iterations or   18 steps


 ENERGY| Total FORCE_EVAL ( QS ) energy [a.u.]:            -4462.514230020411560

 --------  Informations at step =   153 ------------
  Optimization Method        =                 BFGS
  Total Energy               =     -4462.5142300204
  Real energy change         =        -0.0018296151
  Predicted change in energy =        -0.0013394619
  Scaling factor             =         0.0000000000
  Step size                  =         0.0505221522
  Trust radius               =         0.4724315332
  Decrease in energy         =                  YES
  Used time                  =               52.722

  Convergence check :
  Max. step size             =         0.0505221522
  Conv. limit for step size  =         0.0030000000
  Convergence in step size   =                   NO
  RMS step size              =         0.0049902782
  Conv. limit for RMS step   =         0.0015000000
  Convergence in RMS step    =                   NO
  Max. gradient              =         0.0066124892
  Conv. limit for gradients  =         0.0004500000
  Conv. for gradients        =                   NO
  RMS gradient               =         0.0008272266
  Conv. limit for RMS grad.  =         0.0003000000
  Conv. for gradients        =                   NO
 ---------------------------------------------------

 --------------------------
 OPTIMIZATION STEP:    154
 --------------------------

 Number of electrons:                                                       1484
 Number of occupied orbitals:                                                742
 Number of molecular orbitals:                                               742

 Number of orbital functions:                                               3388
 Number of independent orbital functions:                                   3388

 Extrapolation method: ASPC


 SCF WAVEFUNCTION OPTIMIZATION

  ----------------------------------- OT ---------------------------------------
  Minimizer      : DIIS                : direct inversion
                                         in the iterative subspace
                                         using   7 DIIS vectors
                                         safer DIIS on
  Preconditioner : FULL_SINGLE         : diagonalization based
  Precond_solver : DEFAULT
  stepsize       :    0.15000000                  energy_gap     :    0.20000000
  eps_taylor     :   0.10000E-15                  max_taylor     :             4
  ----------------------------------- OT ---------------------------------------

  Step     Update method      Time    Convergence         Total energy    Change
  ------------------------------------------------------------------------------
     1 OT DIIS     0.15E+00    6.3     0.00063447     -4462.4274177622 -4.46E+03
     2 OT DIIS     0.15E+00    2.2     0.00049724     -4462.4906739263 -6.33E-02
     3 OT DIIS     0.15E+00    2.4     0.00070567     -4462.4893571001  1.32E-03
     4 OT DIIS     0.15E+00    2.2     0.00035783     -4462.5060659030 -1.67E-02
     5 OT DIIS     0.15E+00    2.2     0.00015685     -4462.5113582106 -5.29E-03
     6 OT DIIS     0.15E+00    2.2     0.00013973     -4462.5126641839 -1.31E-03
     7 OT DIIS     0.15E+00    2.2     0.00007425     -4462.5136820635 -1.02E-03
     8 OT DIIS     0.15E+00    2.2     0.00005801     -4462.5140780252 -3.96E-04
     9 OT DIIS     0.15E+00    2.3     0.00004188     -4462.5143984492 -3.20E-04
    10 OT DIIS     0.15E+00    2.2     0.00003262     -4462.5145638737 -1.65E-04
    11 OT DIIS     0.15E+00    2.2     0.00002828     -4462.5146683211 -1.04E-04
    12 OT DIIS     0.15E+00    2.1     0.00002460     -4462.5147388531 -7.05E-05
    13 OT DIIS     0.15E+00    2.3     0.00001778     -4462.5147828533 -4.40E-05
    14 OT DIIS     0.15E+00    2.0     0.00001573     -4462.5148035765 -2.07E-05
    15 OT DIIS     0.15E+00    2.2     0.00001414     -4462.5148220113 -1.84E-05
    16 OT DIIS     0.15E+00    1.9     0.00001050     -4462.5148398538 -1.78E-05
    17 OT DIIS     0.15E+00    2.2     0.00000966     -4462.5148497968 -9.94E-06

  *** SCF run converged in    17 steps ***


  Electronic density on regular grids:      -1483.9999997240        0.0000002760
  Core density on regular grids:             1483.9999999308       -0.0000000692
  Total charge density on r-space grids:        0.0000002068
  Total charge density g-space grids:           0.0000002068

  Overlap energy of the core charge distribution:               0.00000250097660
  Self energy of the core charge distribution:             -10331.29031661960289
  Core Hamiltonian energy:                                   2680.36693077166501
  Hartree energy:                                            3975.62809659754384
  Exchange-correlation energy:                               -786.52648847073556
  Dispersion energy:                                           -0.69307457669021

  Total energy:                                             -4462.51484979684483

  outer SCF iter =    1 RMS gradient =   0.97E-05 energy =      -4462.5148497968
  outer SCF loop converged in   1 iterations or   17 steps


 ENERGY| Total FORCE_EVAL ( QS ) energy [a.u.]:            -4462.514863556009004

 --------  Informations at step =   154 ------------
  Optimization Method        =                 BFGS
  Total Energy               =     -4462.5148635560
  Real energy change         =        -0.0006335356
  Predicted change in energy =        -0.0023217757
  Scaling factor             =         0.0000000000
  Step size                  =         0.1380211799
  Trust radius               =         0.4724315332
  Decrease in energy         =                  YES
  Used time                  =               52.041

  Convergence check :
  Max. step size             =         0.1380211799
  Conv. limit for step size  =         0.0030000000
  Convergence in step size   =                   NO
  RMS step size              =         0.0151589637
  Conv. limit for RMS step   =         0.0015000000
  Convergence in RMS step    =                   NO
  Max. gradient              =         0.0072078225
  Conv. limit for gradients  =         0.0004500000
  Conv. for gradients        =                   NO
  RMS gradient               =         0.0011236118
  Conv. limit for RMS grad.  =         0.0003000000
  Conv. for gradients        =                   NO
 ---------------------------------------------------

 --------------------------
 OPTIMIZATION STEP:    155
 --------------------------

 Number of electrons:                                                       1484
 Number of occupied orbitals:                                                742
 Number of molecular orbitals:                                               742

 Number of orbital functions:                                               3388
 Number of independent orbital functions:                                   3388

 Extrapolation method: ASPC


 SCF WAVEFUNCTION OPTIMIZATION

  ----------------------------------- OT ---------------------------------------
  Minimizer      : DIIS                : direct inversion
                                         in the iterative subspace
                                         using   7 DIIS vectors
                                         safer DIIS on
  Preconditioner : FULL_SINGLE         : diagonalization based
  Precond_solver : DEFAULT
  stepsize       :    0.15000000                  energy_gap     :    0.20000000
  eps_taylor     :   0.10000E-15                  max_taylor     :             4
  ----------------------------------- OT ---------------------------------------

  Step     Update method      Time    Convergence         Total energy    Change
  ------------------------------------------------------------------------------
     1 OT DIIS     0.15E+00    6.9     0.00048954     -4462.4673713655 -4.46E+03
     2 OT DIIS     0.15E+00    2.0     0.00063694     -4462.4929928637 -2.56E-02
     3 OT DIIS     0.15E+00    2.0     0.00062918     -4462.4989535304 -5.96E-03
     4 OT DIIS     0.15E+00    2.4     0.00026851     -4462.5113781199 -1.24E-02
     5 OT DIIS     0.15E+00    2.1     0.00013448     -4462.5147063160 -3.33E-03
     6 OT DIIS     0.15E+00    2.5     0.00010795     -4462.5155051893 -7.99E-04
     7 OT DIIS     0.15E+00    1.9     0.00005647     -4462.5161598624 -6.55E-04
     8 OT DIIS     0.15E+00    1.9     0.00003991     -4462.5164151649 -2.55E-04
     9 OT DIIS     0.15E+00    2.3     0.00003338     -4462.5165916970 -1.77E-04
    10 OT DIIS     0.15E+00    2.0     0.00002516     -4462.5166997990 -1.08E-04
    11 OT DIIS     0.15E+00    1.8     0.00002550     -4462.5167659361 -6.61E-05
    12 OT DIIS     0.15E+00    2.4     0.00002253     -4462.5168096580 -4.37E-05
    13 OT DIIS     0.15E+00    1.9     0.00001470     -4462.5168560355 -4.64E-05
    14 OT DIIS     0.15E+00    2.2     0.00001330     -4462.5168787197 -2.27E-05
    15 OT DIIS     0.15E+00    1.8     0.00001225     -4462.5168947249 -1.60E-05
    16 OT DIIS     0.15E+00    2.1     0.00000965     -4462.5169138324 -1.91E-05

  *** SCF run converged in    16 steps ***


  Electronic density on regular grids:      -1483.9999997152        0.0000002848
  Core density on regular grids:             1483.9999999307       -0.0000000693
  Total charge density on r-space grids:        0.0000002155
  Total charge density g-space grids:           0.0000002155

  Overlap energy of the core charge distribution:               0.00000248593242
  Self energy of the core charge distribution:             -10331.29031661960289
  Core Hamiltonian energy:                                   2680.35265299390812
  Hartree energy:                                            3975.63852265629748
  Exchange-correlation energy:                               -786.52462342576837
  Dispersion energy:                                           -0.69315192321147

  Total energy:                                             -4462.51691383244361

  outer SCF iter =    1 RMS gradient =   0.96E-05 energy =      -4462.5169138324
  outer SCF loop converged in   1 iterations or   16 steps


 ENERGY| Total FORCE_EVAL ( QS ) energy [a.u.]:            -4462.516926447895457

 --------  Informations at step =   155 ------------
  Optimization Method        =                 BFGS
  Total Energy               =     -4462.5169264479
  Real energy change         =        -0.0020628919
  Predicted change in energy =        -0.0013888580
  Scaling factor             =         0.0000000000
  Step size                  =         0.0677987412
  Trust radius               =         0.4724315332
  Decrease in energy         =                  YES
  Used time                  =               48.714

  Convergence check :
  Max. step size             =         0.0677987412
  Conv. limit for step size  =         0.0030000000
  Convergence in step size   =                   NO
  RMS step size              =         0.0086564943
  Conv. limit for RMS step   =         0.0015000000
  Convergence in RMS step    =                   NO
  Max. gradient              =         0.0057019109
  Conv. limit for gradients  =         0.0004500000
  Conv. for gradients        =                   NO
  RMS gradient               =         0.0010483882
  Conv. limit for RMS grad.  =         0.0003000000
  Conv. for gradients        =                   NO
 ---------------------------------------------------

 --------------------------
 OPTIMIZATION STEP:    156
 --------------------------

 Number of electrons:                                                       1484
 Number of occupied orbitals:                                                742
 Number of molecular orbitals:                                               742

 Number of orbital functions:                                               3388
 Number of independent orbital functions:                                   3388

 Extrapolation method: ASPC


 SCF WAVEFUNCTION OPTIMIZATION

  ----------------------------------- OT ---------------------------------------
  Minimizer      : DIIS                : direct inversion
                                         in the iterative subspace
                                         using   7 DIIS vectors
                                         safer DIIS on
  Preconditioner : FULL_SINGLE         : diagonalization based
  Precond_solver : DEFAULT
  stepsize       :    0.15000000                  energy_gap     :    0.20000000
  eps_taylor     :   0.10000E-15                  max_taylor     :             4
  ----------------------------------- OT ---------------------------------------

  Step     Update method      Time    Convergence         Total energy    Change
  ------------------------------------------------------------------------------
     1 OT DIIS     0.15E+00    6.5     0.00047109     -4462.4631755882 -4.46E+03
     2 OT DIIS     0.15E+00    2.4     0.00039372     -4462.5009002445 -3.77E-02
     3 OT DIIS     0.15E+00    1.9     0.00056497     -4462.4994608636  1.44E-03
     4 OT DIIS     0.15E+00    2.6     0.00027719     -4462.5103648064 -1.09E-02
     5 OT DIIS     0.15E+00    2.2     0.00013334     -4462.5136032521 -3.24E-03
     6 OT DIIS     0.15E+00    2.2     0.00009379     -4462.5144395452 -8.36E-04
     7 OT DIIS     0.15E+00    2.3     0.00005594     -4462.5149201965 -4.81E-04
     8 OT DIIS     0.15E+00    2.1     0.00003717     -4462.5151374085 -2.17E-04
     9 OT DIIS     0.15E+00    2.2     0.00002927     -4462.5152615091 -1.24E-04
    10 OT DIIS     0.15E+00    2.2     0.00002411     -4462.5153438312 -8.23E-05
    11 OT DIIS     0.15E+00    2.1     0.00001835     -4462.5154012839 -5.75E-05
    12 OT DIIS     0.15E+00    2.3     0.00001820     -4462.5154428170 -4.15E-05
    13 OT DIIS     0.15E+00    2.2     0.00001434     -4462.5154714229 -2.86E-05
    14 OT DIIS     0.15E+00    1.8     0.00001180     -4462.5154950836 -2.37E-05
    15 OT DIIS     0.15E+00    2.5     0.00001118     -4462.5155149494 -1.99E-05
    16 OT DIIS     0.15E+00    2.0     0.00000945     -4462.5155349633 -2.00E-05

  *** SCF run converged in    16 steps ***


  Electronic density on regular grids:      -1483.9999997344        0.0000002656
  Core density on regular grids:             1483.9999999309       -0.0000000691
  Total charge density on r-space grids:        0.0000001965
  Total charge density g-space grids:           0.0000001965

  Overlap energy of the core charge distribution:               0.00000245979623
  Self energy of the core charge distribution:             -10331.29031661960289
  Core Hamiltonian energy:                                   2680.31025641433962
  Hartree energy:                                            3975.67497403340803
  Exchange-correlation energy:                               -786.51688749498635
  Dispersion energy:                                           -0.69356375628245

  Total energy:                                             -4462.51553496332872

  outer SCF iter =    1 RMS gradient =   0.94E-05 energy =      -4462.5155349633
  outer SCF loop converged in   1 iterations or   16 steps


 ENERGY| Total FORCE_EVAL ( QS ) energy [a.u.]:            -4462.515552360734546

 --------  Informations at step =   156 ------------
  Optimization Method        =                 BFGS
  Total Energy               =     -4462.5155523607
  Real energy change         =         0.0013740872
  Predicted change in energy =        -0.0031378310
  Scaling factor             =         0.0000000000
  Step size                  =         0.2420371271
  Trust radius               =         0.4724315332
  Decrease in energy         =                   NO
  Used time                  =               50.012

  Convergence check :
  Max. step size             =         0.2420371271
  Conv. limit for step size  =         0.0030000000
  Convergence in step size   =                   NO
  RMS step size              =         0.0270774554
  Conv. limit for RMS step   =         0.0015000000
  Convergence in RMS step    =                   NO
  Max. gradient              =         0.0098339673
  Conv. limit for gradients  =         0.0004500000
  Conv. for gradients        =                   NO
  RMS gradient               =         0.0015108399
  Conv. limit for RMS grad.  =         0.0003000000
  Conv. for gradients        =                   NO
 ---------------------------------------------------

 --------------------------
 OPTIMIZATION STEP:    157
 --------------------------

 Number of electrons:                                                       1484
 Number of occupied orbitals:                                                742
 Number of molecular orbitals:                                               742

 Number of orbital functions:                                               3388
 Number of independent orbital functions:                                   3388

 Extrapolation method: ASPC


 SCF WAVEFUNCTION OPTIMIZATION

  ----------------------------------- OT ---------------------------------------
  Minimizer      : DIIS                : direct inversion
                                         in the iterative subspace
                                         using   7 DIIS vectors
                                         safer DIIS on
  Preconditioner : FULL_SINGLE         : diagonalization based
  Precond_solver : DEFAULT
  stepsize       :    0.15000000                  energy_gap     :    0.20000000
  eps_taylor     :   0.10000E-15                  max_taylor     :             4
  ----------------------------------- OT ---------------------------------------

  Step     Update method      Time    Convergence         Total energy    Change
  ------------------------------------------------------------------------------
     1 OT DIIS     0.15E+00    7.1     0.00086327     -4462.3622671240 -4.46E+03
     2 OT DIIS     0.15E+00    2.6     0.00137232     -4462.4204293655 -5.82E-02
     3 OT DIIS     0.15E+00    2.5     0.00096588     -4462.4727572688 -5.23E-02
     4 OT DIIS     0.15E+00    2.1     0.00052683     -4462.4994746529 -2.67E-02
     5 OT DIIS     0.15E+00    2.3     0.00026318     -4462.5117020497 -1.22E-02
     6 OT DIIS     0.15E+00    2.3     0.00016851     -4462.5146942644 -2.99E-03
     7 OT DIIS     0.15E+00    2.2     0.00010085     -4462.5161908801 -1.50E-03
     8 OT DIIS     0.15E+00    2.3     0.00006906     -4462.5169318183 -7.41E-04
     9 OT DIIS     0.15E+00    2.4     0.00005781     -4462.5172804801 -3.49E-04
    10 OT DIIS     0.15E+00    2.1     0.00004121     -4462.5175312470 -2.51E-04
    11 OT DIIS     0.15E+00    2.2     0.00004795     -4462.5176546792 -1.23E-04
    12 OT DIIS     0.15E+00    2.4     0.00003165     -4462.5177592445 -1.05E-04
    13 OT DIIS     0.15E+00    2.3     0.00002663     -4462.5178366478 -7.74E-05
    14 OT DIIS     0.15E+00    2.0     0.00002189     -4462.5178914642 -5.48E-05
    15 OT DIIS     0.15E+00    2.2     0.00001863     -4462.5179207025 -2.92E-05
    16 OT DIIS     0.15E+00    2.1     0.00001519     -4462.5179491337 -2.84E-05
    17 OT DIIS     0.15E+00    2.1     0.00001451     -4462.5179708362 -2.17E-05
    18 OT DIIS     0.15E+00    2.2     0.00001232     -4462.5179887658 -1.79E-05
    19 OT DIIS     0.15E+00    2.5     0.00001232     -4462.5180115993 -2.28E-05
    20 OT DIIS     0.15E+00    2.0     0.00001203     -4462.5180168195 -5.22E-06
    21 OT DIIS     0.15E+00    1.9     0.00001034     -4462.5180367626 -1.99E-05
    22 OT DIIS     0.15E+00    2.1     0.00000970     -4462.5180524189 -1.57E-05

  *** SCF run converged in    22 steps ***


  Electronic density on regular grids:      -1483.9999997219        0.0000002781
  Core density on regular grids:             1483.9999999308       -0.0000000692
  Total charge density on r-space grids:        0.0000002088
  Total charge density g-space grids:           0.0000002088

  Overlap energy of the core charge distribution:               0.00000247443937
  Self energy of the core charge distribution:             -10331.29031661960289
  Core Hamiltonian energy:                                   2680.46490718752557
  Hartree energy:                                            3975.56256892737565
  Exchange-correlation energy:                               -786.56167658150412
  Dispersion energy:                                           -0.69353780710298

  Total energy:                                             -4462.51805241886996

  outer SCF iter =    1 RMS gradient =   0.97E-05 energy =      -4462.5180524189
  outer SCF loop converged in   1 iterations or   22 steps


 ENERGY| Total FORCE_EVAL ( QS ) energy [a.u.]:            -4462.518069096970066

 --------  Informations at step =   157 ------------
  Optimization Method        =                 BFGS
  Total Energy               =     -4462.5180690970
  Real energy change         =        -0.0025167362
  Predicted change in energy =        -0.0026133641
  Scaling factor             =         0.0000000000
  Step size                  =         0.0857266586
  Trust radius               =         0.4724315332
  Decrease in energy         =                  YES
  Used time                  =               64.595

  Convergence check :
  Max. step size             =         0.0857266586
  Conv. limit for step size  =         0.0030000000
  Convergence in step size   =                   NO
  RMS step size              =         0.0091877132
  Conv. limit for RMS step   =         0.0015000000
  Convergence in RMS step    =                   NO
  Max. gradient              =         0.0055507421
  Conv. limit for gradients  =         0.0004500000
  Conv. for gradients        =                   NO
  RMS gradient               =         0.0010761162
  Conv. limit for RMS grad.  =         0.0003000000
  Conv. for gradients        =                   NO
 ---------------------------------------------------

 --------------------------
 OPTIMIZATION STEP:    158
 --------------------------

 Number of electrons:                                                       1484
 Number of occupied orbitals:                                                742
 Number of molecular orbitals:                                               742

 Number of orbital functions:                                               3388
 Number of independent orbital functions:                                   3388

 Extrapolation method: ASPC


 SCF WAVEFUNCTION OPTIMIZATION

  ----------------------------------- OT ---------------------------------------
  Minimizer      : DIIS                : direct inversion
                                         in the iterative subspace
                                         using   7 DIIS vectors
                                         safer DIIS on
  Preconditioner : FULL_SINGLE         : diagonalization based
  Precond_solver : DEFAULT
  stepsize       :    0.15000000                  energy_gap     :    0.20000000
  eps_taylor     :   0.10000E-15                  max_taylor     :             4
  ----------------------------------- OT ---------------------------------------

  Step     Update method      Time    Convergence         Total energy    Change
  ------------------------------------------------------------------------------
     1 OT DIIS     0.15E+00    6.5     0.00080881     -4462.3719571717 -4.46E+03
     2 OT DIIS     0.15E+00    2.1     0.00088214     -4462.4666045088 -9.46E-02
     3 OT DIIS     0.15E+00    2.2     0.00113399     -4462.4646105279  1.99E-03
     4 OT DIIS     0.15E+00    2.6     0.00043686     -4462.5051513046 -4.05E-02
     5 OT DIIS     0.15E+00    2.4     0.00022665     -4462.5141127704 -8.96E-03
     6 OT DIIS     0.15E+00    2.4     0.00016312     -4462.5164079117 -2.30E-03
     7 OT DIIS     0.15E+00    2.4     0.00008970     -4462.5177885110 -1.38E-03
     8 OT DIIS     0.15E+00    2.2     0.00006011     -4462.5183495398 -5.61E-04
     9 OT DIIS     0.15E+00    2.1     0.00004604     -4462.5186516364 -3.02E-04
    10 OT DIIS     0.15E+00    2.1     0.00003431     -4462.5188308804 -1.79E-04
    11 OT DIIS     0.15E+00    2.3     0.00003462     -4462.5189328695 -1.02E-04
    12 OT DIIS     0.15E+00    2.2     0.00002672     -4462.5190024350 -6.96E-05
    13 OT DIIS     0.15E+00    2.2     0.00001869     -4462.5190683646 -6.59E-05
    14 OT DIIS     0.15E+00    2.4     0.00001700     -4462.5191010208 -3.27E-05
    15 OT DIIS     0.15E+00    2.3     0.00001482     -4462.5191263702 -2.53E-05
    16 OT DIIS     0.15E+00    2.5     0.00001169     -4462.5191529313 -2.66E-05
    17 OT DIIS     0.15E+00    2.5     0.00001118     -4462.5191717818 -1.89E-05
    18 OT DIIS     0.15E+00    2.1     0.00001046     -4462.5191916326 -1.99E-05
    19 OT DIIS     0.15E+00    2.2     0.00000983     -4462.5192157098 -2.41E-05

  *** SCF run converged in    19 steps ***


[...]
    34 OT DIIS     0.15E+00    2.6     0.00001622     -4462.5832642441 -4.02E-05
    35 OT DIIS     0.15E+00    5.7     0.00001565     -4462.5833178895 -5.36E-05
    36 OT DIIS     0.15E+00    3.1     0.00001601     -4462.5833494685 -3.16E-05
    37 OT DIIS     0.15E+00    4.7     0.00001593     -4462.5833897261 -4.03E-05
    38 OT DIIS     0.15E+00    3.4     0.00001559     -4462.5834469353 -5.72E-05
    39 OT DIIS     0.15E+00    4.7     0.00001542     -4462.5834871827 -4.02E-05
    40 OT DIIS     0.15E+00    6.9     0.00001525     -4462.5835245067 -3.73E-05
    41 OT DIIS     0.15E+00    3.9     0.00001486     -4462.5835614313 -3.69E-05
    42 OT DIIS     0.15E+00    4.8     0.00001504     -4462.5836039460 -4.25E-05
    43 OT DIIS     0.15E+00    3.9     0.00001441     -4462.5836326544 -2.87E-05
    44 OT DIIS     0.15E+00    3.0     0.00001427     -4462.5836561296 -2.35E-05
    45 OT DIIS     0.15E+00    3.2     0.00001393     -4462.5836852639 -2.91E-05
    46 OT DIIS     0.15E+00    5.3     0.00001352     -4462.5837222778 -3.70E-05
    47 OT DIIS     0.15E+00    3.2     0.00001335     -4462.5837527450 -3.05E-05
    48 OT DIIS     0.15E+00    4.4     0.00001330     -4462.5837832926 -3.05E-05
    49 OT DIIS     0.15E+00    4.5     0.00001320     -4462.5838185846 -3.53E-05
    50 OT DIIS     0.15E+00    4.0     0.00001354     -4462.5838678369 -4.93E-05

  Leaving inner SCF loop after reaching    50 steps.


  Electronic density on regular grids:      -1483.9999996905        0.0000003095
  Core density on regular grids:             1483.9999999307       -0.0000000693
  Total charge density on r-space grids:        0.0000002402
  Total charge density g-space grids:           0.0000002402

  Overlap energy of the core charge distribution:               0.00000243752685
  Self energy of the core charge distribution:             -10331.29031661960289
  Core Hamiltonian energy:                                   2680.55106141727629
  Hartree energy:                                            3975.49126995096412
  Exchange-correlation energy:                               -786.64206874254819
  Dispersion energy:                                           -0.69381628049474

  Total energy:                                             -4462.58386783687729

  outer SCF iter =    1 RMS gradient =   0.14E-04 energy =      -4462.5838678369

  ----------------------------------- OT ---------------------------------------
  Minimizer      : DIIS                : direct inversion
                                         in the iterative subspace
                                         using   7 DIIS vectors
                                         safer DIIS on
  Preconditioner : FULL_SINGLE         : diagonalization based
  Precond_solver : DEFAULT
  stepsize       :    0.15000000                  energy_gap     :    0.20000000
  eps_taylor     :   0.10000E-15                  max_taylor     :             4
  ----------------------------------- OT ---------------------------------------

  Step     Update method      Time    Convergence         Total energy    Change
  ------------------------------------------------------------------------------
     1 OT DIIS     0.15E+00   20.6     0.00001326     -4462.5838875670 -1.97E-05
     2 OT DIIS     0.15E+00    5.6     0.00002724     -4462.5839187328 -3.12E-05
     3 OT DIIS     0.15E+00    3.7     0.00001193     -4462.5839505409 -3.18E-05
     4 OT DIIS     0.15E+00    3.4     0.00001166     -4462.5839723253 -2.18E-05
     5 OT DIIS     0.15E+00    4.0     0.00001212     -4462.5840592467 -8.69E-05
     6 OT DIIS     0.15E+00    3.2     0.00001287     -4462.5845024519 -4.43E-04
     7 OT DIIS     0.15E+00    2.8     0.00001149     -4462.5849796536 -4.77E-04
     8 OT DIIS     0.15E+00    6.1     0.00000967     -4462.5850609362 -8.13E-05

  *** SCF run converged in     8 steps ***


  Electronic density on regular grids:      -1483.9999996979        0.0000003021
  Core density on regular grids:             1483.9999999307       -0.0000000693
  Total charge density on r-space grids:        0.0000002328
  Total charge density g-space grids:           0.0000002328

  Overlap energy of the core charge distribution:               0.00000243752685
  Self energy of the core charge distribution:             -10331.29031661960289
  Core Hamiltonian energy:                                   2680.54361580557361
  Hartree energy:                                            3975.49665326919967
  Exchange-correlation energy:                               -786.64119954836121
  Dispersion energy:                                           -0.69381628049474

  Total energy:                                             -4462.58506093615779

  outer SCF iter =    2 RMS gradient =   0.97E-05 energy =      -4462.5850609362
  outer SCF loop converged in   2 iterations or   58 steps


 ENERGY| Total FORCE_EVAL ( QS ) energy [a.u.]:            -4462.585138906755674

 --------  Informations at step =   308 ------------
  Optimization Method        =                 BFGS
  Total Energy               =     -4462.5851389068
  Real energy change         =         0.0015098231
  Predicted change in energy =        -0.0002561738
  Scaling factor             =         0.8816751433
  Step size                  =         0.0908184807
  Trust radius               =         0.4724315332
  Decrease in energy         =                   NO
  Used time                  =              286.156

  Convergence check :
  Max. step size             =         0.0908184807
  Conv. limit for step size  =         0.0030000000
  Convergence in step size   =                   NO
  RMS step size              =         0.0056790433
  Conv. limit for RMS step   =         0.0015000000
  Convergence in RMS step    =                   NO
  Max. gradient              =         0.0023922738
  Conv. limit for gradients  =         0.0004500000
  Conv. for gradients        =                   NO
  RMS gradient               =         0.0004768147
  Conv. limit for RMS grad.  =         0.0003000000
  Conv. for gradients        =                   NO
 ---------------------------------------------------

 --------------------------
 OPTIMIZATION STEP:    309
 --------------------------

 Number of electrons:                                                       1484
 Number of occupied orbitals:                                                742
 Number of molecular orbitals:                                               742

 Number of orbital functions:                                               3388
 Number of independent orbital functions:                                   3388

 Extrapolation method: ASPC


 SCF WAVEFUNCTION OPTIMIZATION

  ----------------------------------- OT ---------------------------------------
  Minimizer      : DIIS                : direct inversion
                                         in the iterative subspace
                                         using   7 DIIS vectors
                                         safer DIIS on
  Preconditioner : FULL_SINGLE         : diagonalization based
  Precond_solver : DEFAULT
  stepsize       :    0.15000000                  energy_gap     :    0.20000000
  eps_taylor     :   0.10000E-15                  max_taylor     :             4
  ----------------------------------- OT ---------------------------------------

  Step     Update method      Time    Convergence         Total energy    Change
  ------------------------------------------------------------------------------
     1 OT DIIS     0.15E+00   16.5     0.00162759     -4462.4092624931 -4.46E+03
     2 OT DIIS     0.15E+00    3.4     0.00501907     -4461.4790468848  9.30E-01
     3 OT DIIS     0.15E+00    5.2     0.00116211     -4462.5138938738 -1.03E+00
     4 OT DIIS     0.15E+00    4.7     0.00062451     -4462.5592019825 -4.53E-02
     5 OT DIIS     0.15E+00    5.6     0.00037031     -4462.5696896146 -1.05E-02
     6 OT DIIS     0.15E+00    3.0     0.00022754     -4462.5744659010 -4.78E-03
     7 OT DIIS     0.15E+00    5.6     0.00014948     -4462.5767983082 -2.33E-03
     8 OT DIIS     0.15E+00    5.1     0.00011573     -4462.5782556524 -1.46E-03
     9 OT DIIS     0.15E+00    3.5     0.00009580     -4462.5790426980 -7.87E-04
    10 OT DIIS     0.15E+00    3.0     0.00007738     -4462.5800796320 -1.04E-03
    11 OT DIIS     0.15E+00    8.1     0.00006698     -4462.5807001984 -6.21E-04
    12 OT DIIS     0.15E+00    4.5     0.00008824     -4462.5809875058 -2.87E-04
    13 OT DIIS     0.15E+00    5.7     0.00006337     -4462.5813709075 -3.83E-04
    14 OT DIIS     0.15E+00    3.5     0.00005875     -4462.5815417711 -1.71E-04
    15 OT DIIS     0.15E+00    3.3     0.00005070     -4462.5817645761 -2.23E-04
    16 OT DIIS     0.15E+00    4.8     0.00004240     -4462.5819288567 -1.64E-04
    17 OT DIIS     0.15E+00    4.1     0.00004072     -4462.5820479080 -1.19E-04
    18 OT DIIS     0.15E+00    5.5     0.00003265     -4462.5821348099 -8.69E-05
    19 OT DIIS     0.15E+00    6.9     0.00003077     -4462.5822472659 -1.12E-04
    20 OT DIIS     0.15E+00    3.1     0.00003243     -4462.5823598033 -1.13E-04
    21 OT DIIS     0.15E+00    4.7     0.00002984     -4462.5824161579 -5.64E-05
    22 OT DIIS     0.15E+00    3.0     0.00002870     -4462.5825070607 -9.09E-05
    23 OT DIIS     0.15E+00    5.6     0.00002687     -4462.5826069568 -9.99E-05
    24 OT DIIS     0.15E+00    3.9     0.00002637     -4462.5827099677 -1.03E-04
    25 OT DIIS     0.15E+00    5.2     0.00002673     -4462.5828209448 -1.11E-04
    26 OT DIIS     0.15E+00    5.4     0.00002565     -4462.5828581422 -3.72E-05
    27 OT DIIS     0.15E+00    3.8     0.00002450     -4462.5829457328 -8.76E-05
    28 OT DIIS     0.15E+00    4.5     0.00002553     -4462.5830284735 -8.27E-05
    29 OT DIIS     0.15E+00    3.1     0.00002434     -4462.5830431056 -1.46E-05
    30 OT DIIS     0.15E+00    4.7     0.00002231     -4462.5831030276 -5.99E-05
    31 OT DIIS     0.15E+00    5.4     0.00002026     -4462.5831474565 -4.44E-05
    32 OT DIIS     0.15E+00    4.5     0.00001918     -4462.5832042619 -5.68E-05
    33 OT DIIS     0.15E+00    4.2     0.00001893     -4462.5832774785 -7.32E-05
    34 OT DIIS     0.15E+00    4.2     0.00001930     -4462.5833140997 -3.66E-05
    35 OT DIIS     0.15E+00    4.0     0.00001880     -4462.5833880798 -7.40E-05
    36 OT DIIS     0.15E+00    3.5     0.00002030     -4462.5834593415 -7.13E-05
    37 OT DIIS     0.15E+00    5.4     0.00002093     -4462.5834867606 -2.74E-05
    38 OT DIIS     0.15E+00    3.0     0.00002007     -4462.5835469057 -6.01E-05
    39 OT DIIS     0.15E+00    4.8     0.00001893     -4462.5835807258 -3.38E-05
    40 OT DIIS     0.15E+00    4.4     0.00001775     -4462.5836209427 -4.02E-05
    41 OT DIIS     0.15E+00    5.6     0.00001686     -4462.5836696441 -4.87E-05
    42 OT DIIS     0.15E+00    2.2     0.00001667     -4462.5836952082 -2.56E-05
    43 OT DIIS     0.15E+00    5.5     0.00001585     -4462.5837377356 -4.25E-05
    44 OT DIIS     0.15E+00    3.3     0.00001622     -4462.5837827642 -4.50E-05
    45 OT DIIS     0.15E+00    6.1     0.00001658     -4462.5838148711 -3.21E-05
    46 OT DIIS     0.15E+00    4.6     0.00001646     -4462.5838642177 -4.93E-05
    47 OT DIIS     0.15E+00    4.4     0.00001633     -4462.5839028662 -3.86E-05
    48 OT DIIS     0.15E+00    5.1     0.00001607     -4462.5839454567 -4.26E-05
    49 OT DIIS     0.15E+00    3.5     0.00001580     -4462.5839915357 -4.61E-05
    50 OT DIIS     0.15E+00    5.0     0.00001601     -4462.5840311066 -3.96E-05

  Leaving inner SCF loop after reaching    50 steps.


  Electronic density on regular grids:      -1483.9999996915        0.0000003085
  Core density on regular grids:             1483.9999999307       -0.0000000693
  Total charge density on r-space grids:        0.0000002392
  Total charge density g-space grids:           0.0000002392

  Overlap energy of the core charge distribution:               0.00000243649740
  Self energy of the core charge distribution:             -10331.29031661960289
  Core Hamiltonian energy:                                   2680.52768446831305
  Hartree energy:                                            3975.51464714086251
  Exchange-correlation energy:                               -786.64229328801594
  Dispersion energy:                                           -0.69375524463498

  Total energy:                                             -4462.58403110658037

  outer SCF iter =    1 RMS gradient =   0.16E-04 energy =      -4462.5840311066

  ----------------------------------- OT ---------------------------------------
  Minimizer      : DIIS                : direct inversion
                                         in the iterative subspace
                                         using   7 DIIS vectors
                                         safer DIIS on
  Preconditioner : FULL_SINGLE         : diagonalization based
  Precond_solver : DEFAULT
  stepsize       :    0.15000000                  energy_gap     :    0.20000000
  eps_taylor     :   0.10000E-15                  max_taylor     :             4
  ----------------------------------- OT ---------------------------------------

  Step     Update method      Time    Convergence         Total energy    Change
  ------------------------------------------------------------------------------
     1 OT DIIS     0.15E+00   19.4     0.00001492     -4462.5840596036 -2.85E-05
     2 OT DIIS     0.15E+00    5.8     0.00002763     -4462.5841035451 -4.39E-05
     3 OT DIIS     0.15E+00    2.5     0.00001376     -4462.5841400667 -3.65E-05
     4 OT DIIS     0.15E+00    5.8     0.00001304     -4462.5841650394 -2.50E-05
     5 OT DIIS     0.15E+00    5.6     0.00001374     -4462.5842687313 -1.04E-04
     6 OT DIIS     0.15E+00    4.7     0.00001450     -4462.5846990855 -4.30E-04
     7 OT DIIS     0.15E+00    2.2     0.00001247     -4462.5852376878 -5.39E-04
     8 OT DIIS     0.15E+00    5.8     0.00001038     -4462.5853096911 -7.20E-05
     9 OT DIIS     0.15E+00    3.3     0.00001173     -4462.5853656525 -5.60E-05
    10 OT DIIS     0.15E+00    4.1     0.00001042     -4462.5855162619 -1.51E-04
    11 OT DIIS     0.15E+00    5.3     0.00000992     -4462.5855820542 -6.58E-05

  *** SCF run converged in    11 steps ***


  Electronic density on regular grids:      -1483.9999997138        0.0000002862
  Core density on regular grids:             1483.9999999307       -0.0000000693
  Total charge density on r-space grids:        0.0000002168
  Total charge density g-space grids:           0.0000002168

  Overlap energy of the core charge distribution:               0.00000243649740
  Self energy of the core charge distribution:             -10331.29031661960289
  Core Hamiltonian energy:                                   2680.52950571745487
  Hartree energy:                                            3975.51022464716834
  Exchange-correlation energy:                               -786.64124299107516
  Dispersion energy:                                           -0.69375524463498

  Total energy:                                             -4462.58558205419195

  outer SCF iter =    2 RMS gradient =   0.99E-05 energy =      -4462.5855820542
  outer SCF loop converged in   2 iterations or   61 steps


 ENERGY| Total FORCE_EVAL ( QS ) energy [a.u.]:            -4462.585684253954241

 --------  Informations at step =   309 ------------
  Optimization Method        =                 BFGS
  Total Energy               =     -4462.5856842540
  Real energy change         =        -0.0005453472
  Predicted change in energy =        -0.0002220806
  Scaling factor             =         0.8816751433
  Step size                  =         0.1338364062
  Trust radius               =         0.4724315332
  Decrease in energy         =                   NO
  Used time                  =              314.595

  Convergence check :
  Max. step size             =         0.1338364062
  Conv. limit for step size  =         0.0030000000
  Convergence in step size   =                   NO
  RMS step size              =         0.0074132652
  Conv. limit for RMS step   =         0.0015000000
  Convergence in RMS step    =                   NO
  Max. gradient              =         0.0029706362
  Conv. limit for gradients  =         0.0004500000
  Conv. for gradients        =                   NO
  RMS gradient               =         0.0004618075
  Conv. limit for RMS grad.  =         0.0003000000
  Conv. for gradients        =                   NO
 ---------------------------------------------------

 --------------------------
 OPTIMIZATION STEP:    310
 --------------------------

  Step is scaled; Scaling factor =  0.69208

 Number of electrons:                                                       1484
 Number of occupied orbitals:                                                742
 Number of molecular orbitals:                                               742

 Number of orbital functions:                                               3388
 Number of independent orbital functions:                                   3388

 Extrapolation method: ASPC


 SCF WAVEFUNCTION OPTIMIZATION

  ----------------------------------- OT ---------------------------------------
  Minimizer      : DIIS                : direct inversion
                                         in the iterative subspace
                                         using   7 DIIS vectors
                                         safer DIIS on
  Preconditioner : FULL_SINGLE         : diagonalization based
  Precond_solver : DEFAULT
  stepsize       :    0.15000000                  energy_gap     :    0.20000000
  eps_taylor     :   0.10000E-15                  max_taylor     :             4
  ----------------------------------- OT ---------------------------------------

  Step     Update method      Time    Convergence         Total energy    Change
  ------------------------------------------------------------------------------
     1 OT DIIS     0.15E+00   15.4     0.00239415     -4462.1283464158 -4.46E+03
     2 OT DIIS     0.15E+00    5.8     0.00828531     -4459.9208931945  2.21E+00
[1695037484.453022] [ibc11b07n27:81560:0]        mm_xpmem.c:135  UCX  ERROR   failed to attach xpmem apid 0x2400013e98 offset 0x1f487000 length 20480: Cannot allocate memory
[1695037484.453201] [ibc11b07n27:81560:0]        ucp_rkey.c:449  UCX  ERROR   failed to unpack remote key from remote md[7]: Input/output error
[1695037484.459664] [ibc11b07n27:81560:0]         pgtable.c:643  UCX  WARN    failed to remove pgtable region0x166070d0 [0x2b38c67ed818..0x2b38c67ed818]
[1695037484.649430] [ibc11b07n27:81560:0]          rcache.c:674  UCX  WARN    xpmem_remote_mem: destroying inuse region 0x166070d0 [0x2b38c67ed818..0x2b38c67ed818] g- rw ref 4294967295 apid 0x1900013e98 attach_addr (nil) rmem 0x8d39160
[1695037485.867889] [ibc11b07n27:81560:0]          rcache.c:674  UCX  WARN    xpmem_remote_mem: destroying inuse region 0x8e54340 [0x2aac192e1000..0x2aac192e4000] g- rw ref 1 apid 0x1900013e98 attach_addr 0x2b38d8ddd000 rmem 0x8d39160
[1695037485.869851] [ibc11b07n27:81560:0]           mpool.c:54   UCX  WARN    object 0x2b38d8dd8638 was not returned to mpool rcache_mp
[1695037485.869949] [ibc11b07n27:81560:0]           mpool.c:54   UCX  WARN    object 0x2b38d8dda408 was not returned to mpool rcache_mp
[1695037485.870041] [ibc11b07n27:81560:0]           mpool.c:54   UCX  WARN    object 0x2b38d8dda498 was not returned to mpool rcache_mp
[1695037485.870133] [ibc11b07n27:81560:0]           mpool.c:54   UCX  WARN    object 0x2b38d8dda5b8 was not returned to mpool rcache_mp
[1695037485.870225] [ibc11b07n27:81560:0]           mpool.c:54   UCX  WARN    object 0x2b38d8ddad98 was not returned to mpool rcache_mp
[1695037485.873571] [ibc11b07n27:81560:0]         pgtable.c:682  UCX  WARN    page table not empty during cleanup
