 DBCSR| CPU Multiplication driver                                           XSMM
 DBCSR| Multrec recursion limit                                              512
 DBCSR| Multiplication stack size                                           1000
 DBCSR| Maximum elements for images                                    UNLIMITED
 DBCSR| Multiplicative factor virtual images                                   1
 DBCSR| Use multiplication densification                                       T
 DBCSR| Multiplication size stacks                                             3
 DBCSR| Use memory pool for CPU allocation                                     F
 DBCSR| Number of 3D layers                                               SINGLE
 DBCSR| Use MPI memory allocation                                              F
 DBCSR| Use RMA algorithm                                                      F
 DBCSR| Use Communication thread                                               T
 DBCSR| Communication thread load                                             87
 DBCSR| MPI: My node id                                                        0
 DBCSR| MPI: Number of nodes                                                  56
 DBCSR| OMP: Current number of threads                                         1
 DBCSR| OMP: Max number of threads                                             1
 DBCSR| Split modifier for TAS multiplication algorithm                  1.0E+00


  **** **** ******  **  PROGRAM STARTED AT               2023-12-06 14:25:27.813
 ***** ** ***  *** **   PROGRAM STARTED ON                           ibc11b02n12
 **    ****   ******    PROGRAM STARTED BY                                 junli
 ***** **    ** ** **   PROGRAM PROCESS ID                                101696
  **** **  *******  **  PROGRAM STARTED IN /WORK/junli_work/libin/1_U28/2_try_fu
                                           ll

 CP2K| version string:                                          CP2K version 9.1
 CP2K| source code revision number:                                  git:d8d7100
 CP2K| cp2kflags: omp libint fftw3 libxc elpa parallel mpi3 scalapack cosma xsmm
 CP2K|             plumed2 spglib libvori libbqb
 CP2K| is freely available from                            https://www.cp2k.org/
 CP2K| Program compiled at                          Sun Aug 13 14:10:33 CST 2023
 CP2K| Program compiled on                                               ibcln01
 CP2K| Program compiled for                                                local
 CP2K| Data directory path                         /apps/soft/cp2k/cp2k-9.1/data
 CP2K| Input file name                                             U28-1.restart

 GLOBAL| Force Environment number                                              1
 GLOBAL| Basis set file name                                        BASIS_MOLOPT
 GLOBAL| Potential file name                                      GTH_POTENTIALS
 GLOBAL| MM Potential file name                                     MM_POTENTIAL
 GLOBAL| Coordinate file name                                          U28_9.xyz
 GLOBAL| Method name                                                        CP2K
 GLOBAL| Project name                                                        U28
 GLOBAL| Run type                                                        GEO_OPT
 GLOBAL| FFT library                                                       FFTW3
 GLOBAL| Diagonalization library                                            ELPA
 GLOBAL| Minimum number of eigenvectors for ELPA usage                        16
 GLOBAL| Orthonormality check for eigenvectors                          DISABLED
 GLOBAL| Matrix multiplication library                                     COSMA
 GLOBAL| All-to-all communication in single precision                          F
 GLOBAL| FFTs using library dependent lengths                                  F
 GLOBAL| Grid backend                                                       AUTO
 GLOBAL| Global print level                                                  LOW
 GLOBAL| MPI I/O enabled                                                       T
 GLOBAL| Total number of message passing processes                            56
 GLOBAL| Number of threads for this process                                    1
 GLOBAL| This output is from process                                           0
 GLOBAL| Stack size for threads created by OpenMP (OMP_STACKSIZE)        default
 GLOBAL| CPU model name                Intel(R) Xeon(R) Gold 6258R CPU @ 2.70GHz
 GLOBAL| CPUID                                                              1003

 MEMORY| system memory details [Kb]
 MEMORY|                        rank 0           min           max       average
 MEMORY| MemTotal            196695916     196695916     196695916     196695916
 MEMORY| MemFree             164928668     164928668     164928668     164928668
 MEMORY| Buffers                     0             0             0             0
 MEMORY| Cached               10381476      10381476      10381476      10381476
 MEMORY| Slab                  1403724       1403724       1403724       1403724
 MEMORY| SReclaimable           311600        311600        311600        311600
 MEMORY| MemLikelyFree       175621744     175621744     175621744     175621744


 *** WARNING in atoms_input.F:123 :: Overwriting coordinates. Active    ***
 *** coordinates read from &COORD section. Active coordinates READ from ***
 *** &COORD section                                                     ***


 *******************************************************************************
 *******************************************************************************
 **                                                                           **
 **     #####                         ##              ##                      **
 **    ##   ##            ##          ##              ##                      **
 **   ##     ##                       ##            ######                    **
 **   ##     ##  ##   ##  ##   #####  ##  ##   ####   ##    #####    #####    **
 **   ##     ##  ##   ##  ##  ##      ## ##   ##      ##   ##   ##  ##   ##   **
 **   ##  ## ##  ##   ##  ##  ##      ####     ###    ##   ######   ######    **
 **    ##  ###   ##   ##  ##  ##      ## ##      ##   ##   ##       ##        **
 **     #######   #####   ##   #####  ##  ##  ####    ##    #####   ##        **
 **           ##                                                    ##        **
 **                                                                           **
 **                                                ... make the atoms dance   **
 **                                                                           **
 **            Copyright (C) by CP2K developers group (2000-2021)             **
 **                      J. Chem. Phys. 152, 194103 (2020)                    **
 **                                                                           **
 *******************************************************************************


 TOTAL NUMBERS AND MAXIMUM NUMBERS

  Total number of            - Atomic kinds:                                   3
                             - Atoms:                                        196
                             - Shell sets:                                   196
                             - Shells:                                      1148
                             - Primitive Cartesian functions:               1064
                             - Cartesian basis functions:                   3948
                             - Spherical basis functions:                   3388

  Maximum angular momentum of- Orbital basis functions:                        4
                             - Local part of the GTH pseudopotential:          2
                             - Non-local part of the GTH pseudopotential:      3


 SCF PARAMETERS         Density guess:                                   RESTART
                        --------------------------------------------------------
                        max_scf:                                              50
                        max_scf_history:                                       0
                        max_diis:                                              4
                        --------------------------------------------------------
                        eps_scf:                                        1.00E-05
                        eps_scf_history:                                0.00E+00
                        eps_diis:                                       1.00E-01
                        eps_eigval:                                     1.00E-05
                        --------------------------------------------------------
                        level_shift [a.u.]:                                 0.00
                        --------------------------------------------------------
                        Outer loop SCF in use 
                        No variables optimised in outer loop
                        eps_scf                                         1.00E-05
                        max_scf                                               10
                        No outer loop optimization
                        step_size                                       5.00E-01

 BFGS| Use rational function optimization for step estimation:                NO
 BFGS| Use model Hessian for initial guess:                                  YES
 BFGS| Restart Hessian:                                                       NO
 BFGS| Trust radius:                                                       0.472

 *******************************************************************************
 ***                     STARTING GEOMETRY OPTIMIZATION                      ***
 ***                                   BFGS                                  ***
 *******************************************************************************

 Number of electrons:                                                       1484
 Number of occupied orbitals:                                                742
 Number of molecular orbitals:                                               742

 Number of orbital functions:                                               3388
 Number of independent orbital functions:                                   3388

 Extrapolation method: initial_guess


 SCF WAVEFUNCTION OPTIMIZATION

  ----------------------------------- OT ---------------------------------------
  Minimizer      : DIIS                : direct inversion
                                         in the iterative subspace
                                         using   7 DIIS vectors
                                         safer DIIS on
  Preconditioner : FULL_SINGLE         : diagonalization based
  Precond_solver : DEFAULT
  stepsize       :    0.15000000                  energy_gap     :    0.20000000
  eps_taylor     :   0.10000E-15                  max_taylor     :             4
  ----------------------------------- OT ---------------------------------------

  Step     Update method      Time    Convergence         Total energy    Change
  ------------------------------------------------------------------------------
     1 OT DIIS     0.15E+00    6.1     0.00190250     -4460.8686037132 -4.46E+03
     2 OT DIIS     0.15E+00    2.1     0.00217762     -4461.3230337429 -4.54E-01
     3 OT DIIS     0.15E+00    1.9     0.00233154     -4461.3730957176 -5.01E-02
     4 OT DIIS     0.15E+00    2.1     0.00109084     -4461.5478902029 -1.75E-01
     5 OT DIIS     0.15E+00    2.3     0.00062617     -4461.5949244711 -4.70E-02
     6 OT DIIS     0.15E+00    2.1     0.00032543     -4461.6116940085 -1.68E-02
     7 OT DIIS     0.15E+00    1.9     0.00026438     -4461.6170356927 -5.34E-03
     8 OT DIIS     0.15E+00    2.1     0.00015516     -4461.6212527880 -4.22E-03
     9 OT DIIS     0.15E+00    1.9     0.00011219     -4461.6233413012 -2.09E-03
    10 OT DIIS     0.15E+00    2.1     0.00010794     -4461.6244710938 -1.13E-03
    11 OT DIIS     0.15E+00    1.8     0.00006784     -4461.6256943796 -1.22E-03
    12 OT DIIS     0.15E+00    1.9     0.00007425     -4461.6262003249 -5.06E-04
    13 OT DIIS     0.15E+00    2.1     0.00006123     -4461.6266284872 -4.28E-04
    14 OT DIIS     0.15E+00    2.1     0.00004727     -4461.6270526138 -4.24E-04
    15 OT DIIS     0.15E+00    2.0     0.00004273     -4461.6272827358 -2.30E-04
    16 OT DIIS     0.15E+00    2.1     0.00003926     -4461.6275098709 -2.27E-04
    17 OT DIIS     0.15E+00    2.0     0.00003301     -4461.6277262352 -2.16E-04
    18 OT DIIS     0.15E+00    2.1     0.00002960     -4461.6279260573 -2.00E-04
    19 OT DIIS     0.15E+00    2.1     0.00003000     -4461.6280307826 -1.05E-04
    20 OT DIIS     0.15E+00    2.1     0.00002729     -4461.6282143995 -1.84E-04
    21 OT DIIS     0.15E+00    1.9     0.00002907     -4461.6282794864 -6.51E-05
    22 OT DIIS     0.15E+00    2.0     0.00002714     -4461.6283343158 -5.48E-05
    23 OT DIIS     0.15E+00    2.1     0.00002308     -4461.6284172903 -8.30E-05
    24 OT DIIS     0.15E+00    2.0     0.00002217     -4461.6284721817 -5.49E-05
    25 OT DIIS     0.15E+00    2.2     0.00001927     -4461.6285143538 -4.22E-05
    26 OT DIIS     0.15E+00    2.1     0.00001703     -4461.6285296203 -1.53E-05
    27 OT DIIS     0.15E+00    2.0     0.00001589     -4461.6285793999 -4.98E-05
    28 OT DIIS     0.15E+00    2.1     0.00001456     -4461.6285962281 -1.68E-05
    29 OT DIIS     0.15E+00    2.1     0.00001450     -4461.6286205715 -2.43E-05
    30 OT DIIS     0.15E+00    2.1     0.00001412     -4461.6286368445 -1.63E-05
    31 OT DIIS     0.15E+00    2.1     0.00001245     -4461.6286603913 -2.35E-05
    32 OT DIIS     0.15E+00    2.0     0.00001238     -4461.6286832716 -2.29E-05
    33 OT DIIS     0.15E+00    2.1     0.00001190     -4461.6287043355 -2.11E-05
    34 OT DIIS     0.15E+00    2.0     0.00001156     -4461.6287175009 -1.32E-05
    35 OT DIIS     0.15E+00    2.1     0.00001108     -4461.6287509542 -3.35E-05
    36 OT DIIS     0.15E+00    2.1     0.00001115     -4461.6287589132 -7.96E-06
    37 OT DIIS     0.15E+00    2.1     0.00001118     -4461.6287795839 -2.07E-05
    38 OT DIIS     0.15E+00    2.1     0.00001123     -4461.6287941456 -1.46E-05
    39 OT DIIS     0.15E+00    2.1     0.00001019     -4461.6288056832 -1.15E-05
    40 OT DIIS     0.15E+00    2.0     0.00000977     -4461.6288190317 -1.33E-05

  *** SCF run converged in    40 steps ***


  Electronic density on regular grids:      -1483.9999999754        0.0000000246
  Core density on regular grids:             1483.9999999309       -0.0000000691
  Total charge density on r-space grids:       -0.0000000445
  Total charge density g-space grids:          -0.0000000445

  Overlap energy of the core charge distribution:               0.00000377499759
  Self energy of the core charge distribution:             -10331.29031661960289
  Core Hamiltonian energy:                                   2679.93452615240949
  Hartree energy:                                            3976.68212722757653
  Exchange-correlation energy:                               -786.25537777543718
  Dispersion energy:                                           -0.69978179169159

  Total energy:                                             -4461.62881903174821

  outer SCF iter =    1 RMS gradient =   0.98E-05 energy =      -4461.6288190317
  outer SCF loop converged in   1 iterations or   40 steps


 ENERGY| Total FORCE_EVAL ( QS ) energy [a.u.]:            -4461.628830061335066

 --------  Informations at step =    40 ------------
  Optimization Method        =                 BFGS
  Total Energy               =     -4461.6288300613
  Used time                  =               94.996

 --------------------------
 OPTIMIZATION STEP:     41
 --------------------------

 Number of electrons:                                                       1484
 Number of occupied orbitals:                                                742
 Number of molecular orbitals:                                               742

 Number of orbital functions:                                               3388
 Number of independent orbital functions:                                   3388

 Extrapolation method: ASPC


 SCF WAVEFUNCTION OPTIMIZATION

  ----------------------------------- OT ---------------------------------------
  Minimizer      : DIIS                : direct inversion
                                         in the iterative subspace
                                         using   7 DIIS vectors
                                         safer DIIS on
  Preconditioner : FULL_SINGLE         : diagonalization based
  Precond_solver : DEFAULT
  stepsize       :    0.15000000                  energy_gap     :    0.20000000
  eps_taylor     :   0.10000E-15                  max_taylor     :             4
  ----------------------------------- OT ---------------------------------------

  Step     Update method      Time    Convergence         Total energy    Change
  ------------------------------------------------------------------------------
     1 OT DIIS     0.15E+00    6.0     0.00200174     -4461.0621372024 -4.46E+03
     2 OT DIIS     0.15E+00    2.0     0.00214828     -4461.6186215675 -5.56E-01
     3 OT DIIS     0.15E+00    1.9     0.00237470     -4461.6635554229 -4.49E-02
     4 OT DIIS     0.15E+00    2.1     0.00124463     -4461.8396752529 -1.76E-01
     5 OT DIIS     0.15E+00    2.1     0.00063344     -4461.8996081385 -5.99E-02
     6 OT DIIS     0.15E+00    2.1     0.00034019     -4461.9167856675 -1.72E-02
     7 OT DIIS     0.15E+00    2.1     0.00026953     -4461.9222947532 -5.51E-03
     8 OT DIIS     0.15E+00    1.9     0.00015053     -4461.9268004426 -4.51E-03
     9 OT DIIS     0.15E+00    1.9     0.00011629     -4461.9287171055 -1.92E-03
    10 OT DIIS     0.15E+00    2.1     0.00010246     -4461.9299133531 -1.20E-03
    11 OT DIIS     0.15E+00    2.1     0.00007643     -4461.9309983282 -1.08E-03
    12 OT DIIS     0.15E+00    1.9     0.00007534     -4461.9315287381 -5.30E-04
    13 OT DIIS     0.15E+00    2.1     0.00006463     -4461.9319760513 -4.47E-04
    14 OT DIIS     0.15E+00    2.1     0.00005106     -4461.9324321447 -4.56E-04
    15 OT DIIS     0.15E+00    2.1     0.00004486     -4461.9326917235 -2.60E-04
    16 OT DIIS     0.15E+00    1.8     0.00004090     -4461.9329146796 -2.23E-04
    17 OT DIIS     0.15E+00    2.2     0.00003572     -4461.9331395286 -2.25E-04
    18 OT DIIS     0.15E+00    1.9     0.00003239     -4461.9333613007 -2.22E-04
    19 OT DIIS     0.15E+00    2.1     0.00003209     -4461.9334666296 -1.05E-04
    20 OT DIIS     0.15E+00    2.1     0.00003240     -4461.9336227919 -1.56E-04
    21 OT DIIS     0.15E+00    1.9     0.00003038     -4461.9337425311 -1.20E-04
    22 OT DIIS     0.15E+00    2.1     0.00002716     -4461.9338134570 -7.09E-05
    23 OT DIIS     0.15E+00    2.1     0.00002553     -4461.9338863915 -7.29E-05
    24 OT DIIS     0.15E+00    2.1     0.00002303     -4461.9339780304 -9.16E-05
    25 OT DIIS     0.15E+00    2.1     0.00002103     -4461.9340403199 -6.23E-05
    26 OT DIIS     0.15E+00    2.1     0.00001942     -4461.9340714526 -3.11E-05
    27 OT DIIS     0.15E+00    1.9     0.00001835     -4461.9341273057 -5.59E-05
    28 OT DIIS     0.15E+00    2.1     0.00001832     -4461.9341722070 -4.49E-05
    29 OT DIIS     0.15E+00    2.0     0.00001733     -4461.9342125382 -4.03E-05
    30 OT DIIS     0.15E+00    1.8     0.00001664     -4461.9342381147 -2.56E-05
    31 OT DIIS     0.15E+00    2.1     0.00001586     -4461.9342761620 -3.80E-05
    32 OT DIIS     0.15E+00    2.1     0.00001495     -4461.9343229230 -4.68E-05
    33 OT DIIS     0.15E+00    2.2     0.00001477     -4461.9343606545 -3.77E-05
    34 OT DIIS     0.15E+00    1.9     0.00001463     -4461.9343826114 -2.20E-05
    35 OT DIIS     0.15E+00    2.1     0.00001411     -4461.9344295070 -4.69E-05
    36 OT DIIS     0.15E+00    2.1     0.00001469     -4461.9344553820 -2.59E-05
    37 OT DIIS     0.15E+00    2.1     0.00001392     -4461.9344812539 -2.59E-05
    38 OT DIIS     0.15E+00    2.1     0.00001364     -4461.9344999888 -1.87E-05
    39 OT DIIS     0.15E+00    2.1     0.00001279     -4461.9345258715 -2.59E-05
    40 OT DIIS     0.15E+00    2.0     0.00001188     -4461.9345482581 -2.24E-05
    41 OT DIIS     0.15E+00    1.9     0.00001138     -4461.9345673424 -1.91E-05
    42 OT DIIS     0.15E+00    1.9     0.00001110     -4461.9345794441 -1.21E-05
    43 OT DIIS     0.15E+00    2.2     0.00001055     -4461.9346062258 -2.68E-05
    44 OT DIIS     0.15E+00    2.1     0.00001100     -4461.9346211048 -1.49E-05
    45 OT DIIS     0.15E+00    2.1     0.00001065     -4461.9346365723 -1.55E-05
    46 OT DIIS     0.15E+00    2.0     0.00001068     -4461.9346526334 -1.61E-05
    47 OT DIIS     0.15E+00    2.0     0.00001030     -4461.9346731734 -2.05E-05
    48 OT DIIS     0.15E+00    2.1     0.00001002     -4461.9346876310 -1.45E-05
    49 OT DIIS     0.15E+00    2.1     0.00000971     -4461.9347031462 -1.55E-05

  *** SCF run converged in    49 steps ***


  Electronic density on regular grids:      -1483.9999999708        0.0000000292
  Core density on regular grids:             1483.9999999310       -0.0000000690
  Total charge density on r-space grids:       -0.0000000398
  Total charge density g-space grids:          -0.0000000398

  Overlap energy of the core charge distribution:               0.00000407391171
  Self energy of the core charge distribution:             -10331.29031661960289
  Core Hamiltonian energy:                                   2682.20116410934452
  Hartree energy:                                            3974.82350752381763
  Exchange-correlation energy:                               -786.96847568735211
  Dispersion energy:                                           -0.70058654635438

  Total energy:                                             -4461.93470314623482

  outer SCF iter =    1 RMS gradient =   0.97E-05 energy =      -4461.9347031462
  outer SCF loop converged in   1 iterations or   49 steps


 ENERGY| Total FORCE_EVAL ( QS ) energy [a.u.]:            -4461.934716118505094

 --------  Informations at step =    41 ------------
  Optimization Method        =                 BFGS
  Total Energy               =     -4461.9347161185
  Real energy change         =        -0.3058860572
  Predicted change in energy =        -0.4160094814
  Scaling factor             =         0.0000000000
  Step size                  =         0.3930337044
  Trust radius               =         0.4724315332
  Decrease in energy         =                  YES
  Used time                  =              113.822

  Convergence check :
  Max. step size             =         0.3930337044
  Conv. limit for step size  =         0.0030000000
  Convergence in step size   =                   NO
  RMS step size              =         0.0772641064
  Conv. limit for RMS step   =         0.0015000000
  Convergence in RMS step    =                   NO
  Max. gradient              =         0.1238745888
  Conv. limit for gradients  =         0.0004500000
  Conv. for gradients        =                   NO
  RMS gradient               =         0.0141688388
  Conv. limit for RMS grad.  =         0.0003000000
  Conv. for gradients        =                   NO
 ---------------------------------------------------

 --------------------------
 OPTIMIZATION STEP:     42
 --------------------------

 Number of electrons:                                                       1484
 Number of occupied orbitals:                                                742
 Number of molecular orbitals:                                               742

 Number of orbital functions:                                               3388
 Number of independent orbital functions:                                   3388

 Extrapolation method: ASPC


 SCF WAVEFUNCTION OPTIMIZATION

  ----------------------------------- OT ---------------------------------------
  Minimizer      : DIIS                : direct inversion
                                         in the iterative subspace
                                         using   7 DIIS vectors
                                         safer DIIS on
  Preconditioner : FULL_SINGLE         : diagonalization based
  Precond_solver : DEFAULT
  stepsize       :    0.15000000                  energy_gap     :    0.20000000
  eps_taylor     :   0.10000E-15                  max_taylor     :             4
  ----------------------------------- OT ---------------------------------------

  Step     Update method      Time    Convergence         Total energy    Change
  ------------------------------------------------------------------------------
     1 OT DIIS     0.15E+00    6.1     0.00281131     -4460.5902830198 -4.46E+03
     2 OT DIIS     0.15E+00    1.9     0.00492694     -4460.8319732725 -2.42E-01
     3 OT DIIS     0.15E+00    1.9     0.00285411     -4461.6548758970 -8.23E-01
     4 OT DIIS     0.15E+00    2.1     0.00174318     -4461.8520839314 -1.97E-01
     5 OT DIIS     0.15E+00    1.8     0.00091504     -4461.9680970248 -1.16E-01
     6 OT DIIS     0.15E+00    1.9     0.00044865     -4462.0035105427 -3.54E-02
     7 OT DIIS     0.15E+00    2.1     0.00033848     -4462.0127087424 -9.20E-03
     8 OT DIIS     0.15E+00    2.1     0.00022698     -4462.0201756059 -7.47E-03
     9 OT DIIS     0.15E+00    2.2     0.00016718     -4462.0237439207 -3.57E-03
    10 OT DIIS     0.15E+00    2.0     0.00013078     -4462.0258808413 -2.14E-03
    11 OT DIIS     0.15E+00    2.2     0.00016539     -4462.0269368612 -1.06E-03
    12 OT DIIS     0.15E+00    1.9     0.00008782     -4462.0286980326 -1.76E-03
    13 OT DIIS     0.15E+00    2.1     0.00009168     -4462.0293950111 -6.97E-04
    14 OT DIIS     0.15E+00    2.1     0.00007376     -4462.0302173549 -8.22E-04
    15 OT DIIS     0.15E+00    1.9     0.00006552     -4462.0306612435 -4.44E-04
    16 OT DIIS     0.15E+00    2.1     0.00005709     -4462.0309824103 -3.21E-04
    17 OT DIIS     0.15E+00    2.1     0.00005403     -4462.0312658627 -2.83E-04
    18 OT DIIS     0.15E+00    2.0     0.00004532     -4462.0315807106 -3.15E-04
    19 OT DIIS     0.15E+00    1.8     0.00004833     -4462.0318398455 -2.59E-04
    20 OT DIIS     0.15E+00    2.1     0.00004767     -4462.0317741047  6.57E-05
    21 OT DIIS     0.15E+00    1.9     0.00003871     -4462.0320494344 -2.75E-04
    22 OT DIIS     0.15E+00    2.0     0.00003443     -4462.0321773120 -1.28E-04
    23 OT DIIS     0.15E+00    2.0     0.00003209     -4462.0322574647 -8.02E-05
    24 OT DIIS     0.15E+00    2.1     0.00002942     -4462.0323517115 -9.42E-05
    25 OT DIIS     0.15E+00    2.1     0.00002757     -4462.0324412150 -8.95E-05
    26 OT DIIS     0.15E+00    2.1     0.00002424     -4462.0325083914 -6.72E-05
    27 OT DIIS     0.15E+00    2.1     0.00002460     -4462.0325823755 -7.40E-05
    28 OT DIIS     0.15E+00    2.2     0.00002707     -4462.0325998865 -1.75E-05
    29 OT DIIS     0.15E+00    2.1     0.00002255     -4462.0326742955 -7.44E-05
    30 OT DIIS     0.15E+00    1.9     0.00002002     -4462.0327186774 -4.44E-05
    31 OT DIIS     0.15E+00    2.2     0.00001975     -4462.0327512168 -3.25E-05
    32 OT DIIS     0.15E+00    2.1     0.00001827     -4462.0328020732 -5.09E-05
    33 OT DIIS     0.15E+00    2.1     0.00001758     -4462.0328466307 -4.46E-05
    34 OT DIIS     0.15E+00    2.1     0.00001668     -4462.0328722509 -2.56E-05
    35 OT DIIS     0.15E+00    2.1     0.00001623     -4462.0329021748 -2.99E-05
    36 OT DIIS     0.15E+00    2.1     0.00001805     -4462.0329424293 -4.03E-05
    37 OT DIIS     0.15E+00    1.9     0.00001625     -4462.0329619747 -1.95E-05
    38 OT DIIS     0.15E+00    2.1     0.00001435     -4462.0329847114 -2.27E-05
    39 OT DIIS     0.15E+00    2.0     0.00001443     -4462.0330037511 -1.90E-05
    40 OT DIIS     0.15E+00    2.1     0.00001301     -4462.0330320299 -2.83E-05
    41 OT DIIS     0.15E+00    1.9     0.00001266     -4462.0330566899 -2.47E-05
    42 OT DIIS     0.15E+00    2.1     0.00001227     -4462.0330715641 -1.49E-05
    43 OT DIIS     0.15E+00    2.1     0.00001187     -4462.0330827727 -1.12E-05
    44 OT DIIS     0.15E+00    2.1     0.00001240     -4462.0331188192 -3.60E-05
    45 OT DIIS     0.15E+00    2.0     0.00001226     -4462.0331234021 -4.58E-06
    46 OT DIIS     0.15E+00    2.1     0.00001111     -4462.0331374891 -1.41E-05
    47 OT DIIS     0.15E+00    2.0     0.00001123     -4462.0331536664 -1.62E-05
    48 OT DIIS     0.15E+00    2.2     0.00001029     -4462.0331715844 -1.79E-05
    49 OT DIIS     0.15E+00    2.0     0.00001008     -4462.0331874484 -1.59E-05
    50 OT DIIS     0.15E+00    1.9     0.00000984     -4462.0331981743 -1.07E-05

  *** SCF run converged in    50 steps ***


  Electronic density on regular grids:      -1483.9999999155        0.0000000845
  Core density on regular grids:             1483.9999999311       -0.0000000689
  Total charge density on r-space grids:        0.0000000156
  Total charge density g-space grids:           0.0000000156

  Overlap energy of the core charge distribution:               0.00000238634971
  Self energy of the core charge distribution:             -10331.29031661960289
  Core Hamiltonian energy:                                   2680.28003256083912
  Hartree energy:                                            3976.16874153576282
  Exchange-correlation energy:                               -786.49190777658282
  Dispersion energy:                                           -0.69975026109389

  Total energy:                                             -4462.03319817432748

  outer SCF iter =    1 RMS gradient =   0.98E-05 energy =      -4462.0331981743
  outer SCF loop converged in   1 iterations or   50 steps


 ENERGY| Total FORCE_EVAL ( QS ) energy [a.u.]:            -4462.033201682318577

 --------  Informations at step =    42 ------------
  Optimization Method        =                 BFGS
  Total Energy               =     -4462.0332016823
  Real energy change         =        -0.0984855638
  Predicted change in energy =        -0.1283235029
  Scaling factor             =         0.0000000000
  Step size                  =         0.2300932764
  Trust radius               =         0.4724315332
  Decrease in energy         =                  YES
  Used time                  =              116.386

  Convergence check :
  Max. step size             =         0.2300932764
  Conv. limit for step size  =         0.0030000000
  Convergence in step size   =                   NO
  RMS step size              =         0.0424582574
  Conv. limit for RMS step   =         0.0015000000
  Convergence in RMS step    =                   NO
  Max. gradient              =         0.0642799296
  Conv. limit for gradients  =         0.0004500000
  Conv. for gradients        =                   NO
  RMS gradient               =         0.0071686015
  Conv. limit for RMS grad.  =         0.0003000000
  Conv. for gradients        =                   NO
 ---------------------------------------------------

 --------------------------
 OPTIMIZATION STEP:     43
 --------------------------

 Number of electrons:                                                       1484
 Number of occupied orbitals:                                                742
 Number of molecular orbitals:                                               742

 Number of orbital functions:                                               3388
 Number of independent orbital functions:                                   3388

 Extrapolation method: ASPC


 SCF WAVEFUNCTION OPTIMIZATION

  ----------------------------------- OT ---------------------------------------
  Minimizer      : DIIS                : direct inversion
                                         in the iterative subspace
                                         using   7 DIIS vectors
                                         safer DIIS on
  Preconditioner : FULL_SINGLE         : diagonalization based
  Precond_solver : DEFAULT
  stepsize       :    0.15000000                  energy_gap     :    0.20000000
  eps_taylor     :   0.10000E-15                  max_taylor     :             4
  ----------------------------------- OT ---------------------------------------

  Step     Update method      Time    Convergence         Total energy    Change
  ------------------------------------------------------------------------------
     1 OT DIIS     0.15E+00    6.1     0.00255927     -4461.0285770373 -4.46E+03
     2 OT DIIS     0.15E+00    2.3     0.00510771     -4460.8059651757  2.23E-01
     3 OT DIIS     0.15E+00    1.9     0.00215720     -4461.8441603384 -1.04E+00
     4 OT DIIS     0.15E+00    2.1     0.00185175     -4461.9133834808 -6.92E-02
     5 OT DIIS     0.15E+00    2.0     0.00086790     -4462.0284755730 -1.15E-01
     6 OT DIIS     0.15E+00    2.0     0.00041338     -4462.0599908479 -3.15E-02
     7 OT DIIS     0.15E+00    1.8     0.00029051     -4462.0671968348 -7.21E-03
     8 OT DIIS     0.15E+00    1.9     0.00021640     -4462.0717295003 -4.53E-03
     9 OT DIIS     0.15E+00    1.9     0.00013398     -4462.0745926329 -2.86E-03
    10 OT DIIS     0.15E+00    1.8     0.00010542     -4462.0760034685 -1.41E-03
    11 OT DIIS     0.15E+00    2.0     0.00015573     -4462.0763856315 -3.82E-04
    12 OT DIIS     0.15E+00    2.0     0.00008693     -4462.0774766878 -1.09E-03
    13 OT DIIS     0.15E+00    2.1     0.00007660     -4462.0779469002 -4.70E-04
    14 OT DIIS     0.15E+00    2.1     0.00006873     -4462.0782729643 -3.26E-04
    15 OT DIIS     0.15E+00    2.1     0.00005862     -4462.0785631213 -2.90E-04
    16 OT DIIS     0.15E+00    2.1     0.00004918     -4462.0787299808 -1.67E-04
    17 OT DIIS     0.15E+00    2.1     0.00004139     -4462.0788397259 -1.10E-04
    18 OT DIIS     0.15E+00    2.1     0.00003414     -4462.0789615926 -1.22E-04
    19 OT DIIS     0.15E+00    2.1     0.00003712     -4462.0791176420 -1.56E-04
    20 OT DIIS     0.15E+00    1.9     0.00003495     -4462.0791010297  1.66E-05
    21 OT DIIS     0.15E+00    1.9     0.00002811     -4462.0791734834 -7.25E-05
    22 OT DIIS     0.15E+00    2.1     0.00002600     -4462.0792734075 -9.99E-05
    23 OT DIIS     0.15E+00    1.9     0.00002370     -4462.0793297875 -5.64E-05
    24 OT DIIS     0.15E+00    2.1     0.00002344     -4462.0793759068 -4.61E-05
    25 OT DIIS     0.15E+00    2.1     0.00002200     -4462.0794217248 -4.58E-05
    26 OT DIIS     0.15E+00    2.1     0.00001905     -4462.0794715453 -4.98E-05
    27 OT DIIS     0.15E+00    2.1     0.00001978     -4462.0795218920 -5.03E-05
    28 OT DIIS     0.15E+00    2.2     0.00002256     -4462.0795244492 -2.56E-06
    29 OT DIIS     0.15E+00    2.1     0.00001869     -4462.0795461464 -2.17E-05
    30 OT DIIS     0.15E+00    1.9     0.00001574     -4462.0795834428 -3.73E-05
    31 OT DIIS     0.15E+00    2.1     0.00001397     -4462.0795985992 -1.52E-05
    32 OT DIIS     0.15E+00    2.2     0.00001337     -4462.0796145753 -1.60E-05
    33 OT DIIS     0.15E+00    1.9     0.00001222     -4462.0796333843 -1.88E-05
    34 OT DIIS     0.15E+00    2.1     0.00001106     -4462.0796516430 -1.83E-05
    35 OT DIIS     0.15E+00    2.1     0.00001111     -4462.0796664081 -1.48E-05
    36 OT DIIS     0.15E+00    2.1     0.00001290     -4462.0796825232 -1.61E-05
    37 OT DIIS     0.15E+00    2.1     0.00001228     -4462.0796938214 -1.13E-05
    38 OT DIIS     0.15E+00    2.1     0.00001081     -4462.0797088852 -1.51E-05
    39 OT DIIS     0.15E+00    2.1     0.00001031     -4462.0797183472 -9.46E-06
    40 OT DIIS     0.15E+00    1.9     0.00001015     -4462.0797290531 -1.07E-05
    41 OT DIIS     0.15E+00    1.9     0.00000924     -4462.0797408752 -1.18E-05

  *** SCF run converged in    41 steps ***


  Electronic density on regular grids:      -1483.9999998894        0.0000001106
  Core density on regular grids:             1483.9999999310       -0.0000000690
  Total charge density on r-space grids:        0.0000000415
  Total charge density g-space grids:           0.0000000415

  Overlap energy of the core charge distribution:               0.00000228728399
  Self energy of the core charge distribution:             -10331.29031661960289
  Core Hamiltonian energy:                                   2680.48535885238289
  Hartree energy:                                            3976.00031483311568
  Exchange-correlation energy:                               -786.57541218052188
  Dispersion energy:                                           -0.69968804787962

  Total energy:                                             -4462.07974087522143

  outer SCF iter =    1 RMS gradient =   0.92E-05 energy =      -4462.0797408752
  outer SCF loop converged in   1 iterations or   41 steps


 ENERGY| Total FORCE_EVAL ( QS ) energy [a.u.]:            -4462.079750257728847

 --------  Informations at step =    43 ------------
  Optimization Method        =                 BFGS
  Total Energy               =     -4462.0797502577
  Real energy change         =        -0.0465485754
  Predicted change in energy =        -0.0422324959
  Scaling factor             =         0.0000000000
  Step size                  =         0.2091539531
  Trust radius               =         0.4724315332
  Decrease in energy         =                  YES
  Used time                  =               97.898

  Convergence check :
  Max. step size             =         0.2091539531
  Conv. limit for step size  =         0.0030000000
  Convergence in step size   =                   NO
  RMS step size              =         0.0331492537
  Conv. limit for RMS step   =         0.0015000000
  Convergence in RMS step    =                   NO
  Max. gradient              =         0.0259611640
  Conv. limit for gradients  =         0.0004500000
  Conv. for gradients        =                   NO
  RMS gradient               =         0.0046869711
  Conv. limit for RMS grad.  =         0.0003000000
  Conv. for gradients        =                   NO
 ---------------------------------------------------

 --------------------------
 OPTIMIZATION STEP:     44
 --------------------------

 Number of electrons:                                                       1484
 Number of occupied orbitals:                                                742
 Number of molecular orbitals:                                               742

 Number of orbital functions:                                               3388
 Number of independent orbital functions:                                   3388

 Extrapolation method: ASPC


 SCF WAVEFUNCTION OPTIMIZATION

  ----------------------------------- OT ---------------------------------------
  Minimizer      : DIIS                : direct inversion
                                         in the iterative subspace
                                         using   7 DIIS vectors
                                         safer DIIS on
  Preconditioner : FULL_SINGLE         : diagonalization based
  Precond_solver : DEFAULT
  stepsize       :    0.15000000                  energy_gap     :    0.20000000
  eps_taylor     :   0.10000E-15                  max_taylor     :             4
  ----------------------------------- OT ---------------------------------------

  Step     Update method      Time    Convergence         Total energy    Change
  ------------------------------------------------------------------------------
     1 OT DIIS     0.15E+00    6.1     0.00147569     -4461.6954854236 -4.46E+03
     2 OT DIIS     0.15E+00    2.0     0.00232173     -4461.8425830333 -1.47E-01
     3 OT DIIS     0.15E+00    2.2     0.00158940     -4462.0011262623 -1.59E-01
     4 OT DIIS     0.15E+00    2.0     0.00084990     -4462.0714654608 -7.03E-02
     5 OT DIIS     0.15E+00    2.1     0.00047504     -4462.1002111647 -2.87E-02
     6 OT DIIS     0.15E+00    2.1     0.00023642     -4462.1091716375 -8.96E-03
     7 OT DIIS     0.15E+00    2.0     0.00015573     -4462.1117257415 -2.55E-03
     8 OT DIIS     0.15E+00    2.2     0.00010329     -4462.1134442060 -1.72E-03
     9 OT DIIS     0.15E+00    2.0     0.00007597     -4462.1141954826 -7.51E-04
    10 OT DIIS     0.15E+00    2.0     0.00005964     -4462.1146882129 -4.93E-04
    11 OT DIIS     0.15E+00    2.1     0.00006566     -4462.1149932743 -3.05E-04
    12 OT DIIS     0.15E+00    2.2     0.00004253     -4462.1152607456 -2.67E-04
    13 OT DIIS     0.15E+00    2.1     0.00004050     -4462.1154200403 -1.59E-04
    14 OT DIIS     0.15E+00    2.0     0.00003420     -4462.1155738857 -1.54E-04
    15 OT DIIS     0.15E+00    2.4     0.00002756     -4462.1156648166 -9.09E-05
    16 OT DIIS     0.15E+00    2.2     0.00002395     -4462.1157346233 -6.98E-05
    17 OT DIIS     0.15E+00    2.1     0.00002302     -4462.1157970830 -6.25E-05
    18 OT DIIS     0.15E+00    2.1     0.00001900     -4462.1158643216 -6.72E-05
    19 OT DIIS     0.15E+00    2.1     0.00001993     -4462.1159140936 -4.98E-05
    20 OT DIIS     0.15E+00    2.1     0.00002061     -4462.1159236949 -9.60E-06
    21 OT DIIS     0.15E+00    1.9     0.00001705     -4462.1159847527 -6.11E-05
    22 OT DIIS     0.15E+00    1.9     0.00001632     -4462.1160133993 -2.86E-05
    23 OT DIIS     0.15E+00    2.2     0.00001498     -4462.1160342071 -2.08E-05
    24 OT DIIS     0.15E+00    2.1     0.00001336     -4462.1160660864 -3.19E-05
    25 OT DIIS     0.15E+00    2.3     0.00001316     -4462.1160927647 -2.67E-05
    26 OT DIIS     0.15E+00    2.0     0.00001168     -4462.1161072850 -1.45E-05
    27 OT DIIS     0.15E+00    2.1     0.00001172     -4462.1161272884 -2.00E-05
    28 OT DIIS     0.15E+00    2.2     0.00001242     -4462.1161383682 -1.11E-05
    29 OT DIIS     0.15E+00    2.1     0.00001069     -4462.1161568997 -1.85E-05
    30 OT DIIS     0.15E+00    2.1     0.00001005     -4462.1161677481 -1.08E-05
    31 OT DIIS     0.15E+00    2.1     0.00000970     -4462.1161767556 -9.01E-06

  *** SCF run converged in    31 steps ***


  Electronic density on regular grids:      -1483.9999998888        0.0000001112
  Core density on regular grids:             1483.9999999310       -0.0000000690
  Total charge density on r-space grids:        0.0000000421
  Total charge density g-space grids:           0.0000000421

  Overlap energy of the core charge distribution:               0.00000260322190
  Self energy of the core charge distribution:             -10331.29031661960289
  Core Hamiltonian energy:                                   2681.26852041049415
  Hartree energy:                                            3975.41161800605869
  Exchange-correlation energy:                               -786.80573995080294
  Dispersion energy:                                           -0.70026120499351

  Total energy:                                             -4462.11617675562502

  outer SCF iter =    1 RMS gradient =   0.97E-05 energy =      -4462.1161767556
  outer SCF loop converged in   1 iterations or   31 steps


 ENERGY| Total FORCE_EVAL ( QS ) energy [a.u.]:            -4462.116193681083132

 --------  Informations at step =    44 ------------
  Optimization Method        =                 BFGS
  Total Energy               =     -4462.1161936811
  Real energy change         =        -0.0364434234
  Predicted change in energy =        -0.0327127424
  Scaling factor             =         0.0000000000
  Step size                  =         0.3064436874
  Trust radius               =         0.4724315332
  Decrease in energy         =                  YES
  Used time                  =               77.716

  Convergence check :
  Max. step size             =         0.3064436874
  Conv. limit for step size  =         0.0030000000
  Convergence in step size   =                   NO
  RMS step size              =         0.0417662178
  Conv. limit for RMS step   =         0.0015000000
  Convergence in RMS step    =                   NO
  Max. gradient              =         0.0252693223
  Conv. limit for gradients  =         0.0004500000
  Conv. for gradients        =                   NO
  RMS gradient               =         0.0042001775
  Conv. limit for RMS grad.  =         0.0003000000
  Conv. for gradients        =                   NO
 ---------------------------------------------------

 --------------------------
 OPTIMIZATION STEP:     45
 --------------------------

 Number of electrons:                                                       1484
 Number of occupied orbitals:                                                742
 Number of molecular orbitals:                                               742

 Number of orbital functions:                                               3388
 Number of independent orbital functions:                                   3388

 Extrapolation method: ASPC


 SCF WAVEFUNCTION OPTIMIZATION

  ----------------------------------- OT ---------------------------------------
  Minimizer      : DIIS                : direct inversion
                                         in the iterative subspace
                                         using   7 DIIS vectors
                                         safer DIIS on
  Preconditioner : FULL_SINGLE         : diagonalization based
  Precond_solver : DEFAULT
  stepsize       :    0.15000000                  energy_gap     :    0.20000000
  eps_taylor     :   0.10000E-15                  max_taylor     :             4
  ----------------------------------- OT ---------------------------------------

  Step     Update method      Time    Convergence         Total energy    Change
  ------------------------------------------------------------------------------
     1 OT DIIS     0.15E+00    6.1     0.00098595     -4461.9377036182 -4.46E+03
     2 OT DIIS     0.15E+00    1.9     0.00127611     -4462.0491813946 -1.11E-01
     3 OT DIIS     0.15E+00    1.9     0.00124280     -4462.0735935794 -2.44E-02
     4 OT DIIS     0.15E+00    2.0     0.00059379     -4462.1187884249 -4.52E-02
     5 OT DIIS     0.15E+00    2.2     0.00029924     -4462.1334887341 -1.47E-02
     6 OT DIIS     0.15E+00    2.3     0.00017071     -4462.1372038362 -3.72E-03
     7 OT DIIS     0.15E+00    2.1     0.00011802     -4462.1385253449 -1.32E-03
     8 OT DIIS     0.15E+00    2.1     0.00006874     -4462.1394395105 -9.14E-04
     9 OT DIIS     0.15E+00    2.4     0.00005627     -4462.1397980018 -3.58E-04
    10 OT DIIS     0.15E+00    2.2     0.00004361     -4462.1400651446 -2.67E-04
    11 OT DIIS     0.15E+00    2.1     0.00003969     -4462.1402632246 -1.98E-04
    12 OT DIIS     0.15E+00    1.9     0.00003507     -4462.1403740070 -1.11E-04
    13 OT DIIS     0.15E+00    2.0     0.00002900     -4462.1404795633 -1.06E-04
    14 OT DIIS     0.15E+00    2.1     0.00002429     -4462.1405660948 -8.65E-05
    15 OT DIIS     0.15E+00    2.1     0.00002141     -4462.1406223940 -5.63E-05
    16 OT DIIS     0.15E+00    2.2     0.00001835     -4462.1406661603 -4.38E-05
    17 OT DIIS     0.15E+00    2.1     0.00001752     -4462.1407129181 -4.68E-05
    18 OT DIIS     0.15E+00    2.2     0.00001519     -4462.1407572116 -4.43E-05
    19 OT DIIS     0.15E+00    2.1     0.00001535     -4462.1407859213 -2.87E-05
    20 OT DIIS     0.15E+00    2.2     0.00001625     -4462.1408112993 -2.54E-05
    21 OT DIIS     0.15E+00    1.9     0.00001409     -4462.1408474143 -3.61E-05
    22 OT DIIS     0.15E+00    2.2     0.00001316     -4462.1408678176 -2.04E-05
    23 OT DIIS     0.15E+00    2.0     0.00001272     -4462.1408884640 -2.06E-05
    24 OT DIIS     0.15E+00    2.1     0.00001144     -4462.1409141616 -2.57E-05
    25 OT DIIS     0.15E+00    2.0     0.00001123     -4462.1409322978 -1.81E-05
    26 OT DIIS     0.15E+00    2.2     0.00001019     -4462.1409461198 -1.38E-05
    27 OT DIIS     0.15E+00    1.8     0.00001004     -4462.1409612459 -1.51E-05
    28 OT DIIS     0.15E+00    2.2     0.00001031     -4462.1409740898 -1.28E-05
    29 OT DIIS     0.15E+00    2.2     0.00000939     -4462.1409869665 -1.29E-05

  *** SCF run converged in    29 steps ***


  Electronic density on regular grids:      -1483.9999998882        0.0000001118
  Core density on regular grids:             1483.9999999311       -0.0000000689
  Total charge density on r-space grids:        0.0000000429
  Total charge density g-space grids:           0.0000000429

  Overlap energy of the core charge distribution:               0.00000263190075
  Self energy of the core charge distribution:             -10331.29031661960289
  Core Hamiltonian energy:                                   2681.38954125548571
  Hartree energy:                                            3975.31407873669878
  Exchange-correlation energy:                               -786.85407581559934
  Dispersion energy:                                           -0.70021715540115

  Total energy:                                             -4462.14098696651763

  outer SCF iter =    1 RMS gradient =   0.94E-05 energy =      -4462.1409869665
  outer SCF loop converged in   1 iterations or   29 steps


 ENERGY| Total FORCE_EVAL ( QS ) energy [a.u.]:            -4462.140995388210285

 --------  Informations at step =    45 ------------
  Optimization Method        =                 BFGS
  Total Energy               =     -4462.1409953882
  Real energy change         =        -0.0248017071
  Predicted change in energy =        -0.0257865114
  Scaling factor             =         0.0000000000
  Step size                  =         0.2724663103
  Trust radius               =         0.4724315332
  Decrease in energy         =                  YES
  Used time                  =               75.807

  Convergence check :
  Max. step size             =         0.2724663103
  Conv. limit for step size  =         0.0030000000
  Convergence in step size   =                   NO
  RMS step size              =         0.0463996185
  Conv. limit for RMS step   =         0.0015000000
  Convergence in RMS step    =                   NO
  Max. gradient              =         0.0233573194
  Conv. limit for gradients  =         0.0004500000
  Conv. for gradients        =                   NO
  RMS gradient               =         0.0046040165
  Conv. limit for RMS grad.  =         0.0003000000
  Conv. for gradients        =                   NO
 ---------------------------------------------------

 --------------------------
 OPTIMIZATION STEP:     46
 --------------------------

 Number of electrons:                                                       1484
 Number of occupied orbitals:                                                742
 Number of molecular orbitals:                                               742

 Number of orbital functions:                                               3388
 Number of independent orbital functions:                                   3388

 Extrapolation method: ASPC


 SCF WAVEFUNCTION OPTIMIZATION

  ----------------------------------- OT ---------------------------------------
  Minimizer      : DIIS                : direct inversion
                                         in the iterative subspace
                                         using   7 DIIS vectors
                                         safer DIIS on
  Preconditioner : FULL_SINGLE         : diagonalization based
  Precond_solver : DEFAULT
  stepsize       :    0.15000000                  energy_gap     :    0.20000000
  eps_taylor     :   0.10000E-15                  max_taylor     :             4
  ----------------------------------- OT ---------------------------------------

  Step     Update method      Time    Convergence         Total energy    Change
  ------------------------------------------------------------------------------
     1 OT DIIS     0.15E+00    6.1     0.00087769     -4462.0121128365 -4.46E+03
     2 OT DIIS     0.15E+00    2.2     0.00117875     -4462.0905434697 -7.84E-02
     3 OT DIIS     0.15E+00    2.1     0.00105767     -4462.1174645158 -2.69E-02
     4 OT DIIS     0.15E+00    2.0     0.00054285     -4462.1496719479 -3.22E-02
     5 OT DIIS     0.15E+00    1.9     0.00026541     -4462.1615435521 -1.19E-02
     6 OT DIIS     0.15E+00    2.2     0.00015026     -4462.1645140640 -2.97E-03
     7 OT DIIS     0.15E+00    1.9     0.00010811     -4462.1655689383 -1.05E-03
     8 OT DIIS     0.15E+00    2.1     0.00006193     -4462.1662808837 -7.12E-04
     9 OT DIIS     0.15E+00    2.1     0.00004894     -4462.1666009332 -3.20E-04
    10 OT DIIS     0.15E+00    2.2     0.00004031     -4462.1668245870 -2.24E-04
    11 OT DIIS     0.15E+00    2.1     0.00003495     -4462.1670068274 -1.82E-04
    12 OT DIIS     0.15E+00    2.1     0.00003396     -4462.1671106239 -1.04E-04
    13 OT DIIS     0.15E+00    2.3     0.00002791     -4462.1672249744 -1.14E-04
    14 OT DIIS     0.15E+00    2.0     0.00002311     -4462.1673142128 -8.92E-05
    15 OT DIIS     0.15E+00    2.1     0.00002130     -4462.1673763615 -6.21E-05
    16 OT DIIS     0.15E+00    2.1     0.00001897     -4462.1674270631 -5.07E-05
    17 OT DIIS     0.15E+00    2.1     0.00001726     -4462.1674794310 -5.24E-05
    18 OT DIIS     0.15E+00    2.0     0.00001560     -4462.1675292619 -4.98E-05
    19 OT DIIS     0.15E+00    2.1     0.00001570     -4462.1675620356 -3.28E-05
    20 OT DIIS     0.15E+00    2.1     0.00001646     -4462.1675967638 -3.47E-05
    21 OT DIIS     0.15E+00    2.0     0.00001476     -4462.1676306709 -3.39E-05
    22 OT DIIS     0.15E+00    2.2     0.00001344     -4462.1676554800 -2.48E-05
    23 OT DIIS     0.15E+00    2.2     0.00001308     -4462.1676808412 -2.54E-05
    24 OT DIIS     0.15E+00    2.2     0.00001210     -4462.1677091981 -2.84E-05
    25 OT DIIS     0.15E+00    2.1     0.00001153     -4462.1677294460 -2.02E-05
    26 OT DIIS     0.15E+00    1.9     0.00001067     -4462.1677464908 -1.70E-05
    27 OT DIIS     0.15E+00    2.1     0.00001052     -4462.1677650869 -1.86E-05
    28 OT DIIS     0.15E+00    2.1     0.00001072     -4462.1677835923 -1.85E-05
    29 OT DIIS     0.15E+00    2.1     0.00001019     -4462.1677976340 -1.40E-05
    30 OT DIIS     0.15E+00    2.1     0.00000948     -4462.1678090118 -1.14E-05

  *** SCF run converged in    30 steps ***


  Electronic density on regular grids:      -1483.9999999215        0.0000000785
  Core density on regular grids:             1483.9999999310       -0.0000000690
  Total charge density on r-space grids:        0.0000000095
  Total charge density g-space grids:           0.0000000095

  Overlap energy of the core charge distribution:               0.00000270006729
  Self energy of the core charge distribution:             -10331.29031661960289
  Core Hamiltonian energy:                                   2681.30369300993607
  Hartree energy:                                            3975.35218464144873
  Exchange-correlation energy:                               -786.83324223090040
  Dispersion energy:                                           -0.70013051273089

  Total energy:                                             -4462.16780901178117

  outer SCF iter =    1 RMS gradient =   0.95E-05 energy =      -4462.1678090118
  outer SCF loop converged in   1 iterations or   30 steps


 ENERGY| Total FORCE_EVAL ( QS ) energy [a.u.]:            -4462.167824620828469

 --------  Informations at step =    46 ------------
  Optimization Method        =                 BFGS
  Total Energy               =     -4462.1678246208
  Real energy change         =        -0.0268292326
  Predicted change in energy =        -0.0255601347
  Scaling factor             =         0.0000000000
  Step size                  =         0.2121367305
  Trust radius               =         0.4724315332
  Decrease in energy         =                  YES
  Used time                  =               77.514

  Convergence check :
  Max. step size             =         0.2121367305
  Conv. limit for step size  =         0.0030000000
  Convergence in step size   =                   NO
  RMS step size              =         0.0492543582
  Conv. limit for RMS step   =         0.0015000000
  Convergence in RMS step    =                   NO
  Max. gradient              =         0.0292132804
  Conv. limit for gradients  =         0.0004500000
  Conv. for gradients        =                   NO
  RMS gradient               =         0.0046160985
  Conv. limit for RMS grad.  =         0.0003000000
  Conv. for gradients        =                   NO
 ---------------------------------------------------

 --------------------------
 OPTIMIZATION STEP:     47
 --------------------------

 Number of electrons:                                                       1484
 Number of occupied orbitals:                                                742
 Number of molecular orbitals:                                               742

 Number of orbital functions:                                               3388
 Number of independent orbital functions:                                   3388

 Extrapolation method: ASPC


 SCF WAVEFUNCTION OPTIMIZATION

  ----------------------------------- OT ---------------------------------------
  Minimizer      : DIIS                : direct inversion
                                         in the iterative subspace
                                         using   7 DIIS vectors
                                         safer DIIS on
  Preconditioner : FULL_SINGLE         : diagonalization based
  Precond_solver : DEFAULT
  stepsize       :    0.15000000                  energy_gap     :    0.20000000
  eps_taylor     :   0.10000E-15                  max_taylor     :             4
  ----------------------------------- OT ---------------------------------------

  Step     Update method      Time    Convergence         Total energy    Change
  ------------------------------------------------------------------------------
     1 OT DIIS     0.15E+00    6.1     0.00087358     -4462.0564617845 -4.46E+03
     2 OT DIIS     0.15E+00    2.1     0.00145592     -4462.0943422067 -3.79E-02
     3 OT DIIS     0.15E+00    2.2     0.00096798     -4462.1557205003 -6.14E-02
     4 OT DIIS     0.15E+00    1.9     0.00056246     -4462.1797407375 -2.40E-02
     5 OT DIIS     0.15E+00    2.2     0.00026253     -4462.1926002149 -1.29E-02
     6 OT DIIS     0.15E+00    2.3     0.00015652     -4462.1956346582 -3.03E-03
     7 OT DIIS     0.15E+00    2.0     0.00010701     -4462.1968306600 -1.20E-03
     8 OT DIIS     0.15E+00    2.0     0.00006990     -4462.1976338813 -8.03E-04
     9 OT DIIS     0.15E+00    1.9     0.00005288     -4462.1980725111 -4.39E-04
    10 OT DIIS     0.15E+00    1.8     0.00004739     -4462.1983508654 -2.78E-04
    11 OT DIIS     0.15E+00    2.0     0.00004240     -4462.1986041052 -2.53E-04
    12 OT DIIS     0.15E+00    1.9     0.00003868     -4462.1987613126 -1.57E-04
    13 OT DIIS     0.15E+00    2.0     0.00003244     -4462.1989079950 -1.47E-04
    14 OT DIIS     0.15E+00    2.0     0.00002718     -4462.1990370463 -1.29E-04
    15 OT DIIS     0.15E+00    2.1     0.00002523     -4462.1991228948 -8.58E-05
    16 OT DIIS     0.15E+00    2.2     0.00002236     -4462.1991923993 -6.95E-05
    17 OT DIIS     0.15E+00    2.2     0.00002040     -4462.1992559816 -6.36E-05
    18 OT DIIS     0.15E+00    2.1     0.00001853     -4462.1993273826 -7.14E-05
    19 OT DIIS     0.15E+00    2.3     0.00001901     -4462.1993642953 -3.69E-05
    20 OT DIIS     0.15E+00    2.1     0.00001917     -4462.1994011764 -3.69E-05
    21 OT DIIS     0.15E+00    1.9     0.00001684     -4462.1994459824 -4.48E-05
    22 OT DIIS     0.15E+00    2.0     0.00001529     -4462.1994799214 -3.39E-05
    23 OT DIIS     0.15E+00    2.0     0.00001483     -4462.1995099934 -3.01E-05
    24 OT DIIS     0.15E+00    2.1     0.00001382     -4462.1995423344 -3.23E-05
    25 OT DIIS     0.15E+00    1.8     0.00001314     -4462.1995693200 -2.70E-05
    26 OT DIIS     0.15E+00    2.2     0.00001226     -4462.1995965846 -2.73E-05
    27 OT DIIS     0.15E+00    2.0     0.00001260     -4462.1996192109 -2.26E-05
    28 OT DIIS     0.15E+00    2.2     0.00001261     -4462.1996427116 -2.35E-05
    29 OT DIIS     0.15E+00    2.1     0.00001197     -4462.1996650574 -2.23E-05
    30 OT DIIS     0.15E+00    2.0     0.00001119     -4462.1996833188 -1.83E-05
    31 OT DIIS     0.15E+00    2.1     0.00001110     -4462.1997051710 -2.19E-05
    32 OT DIIS     0.15E+00    2.1     0.00001071     -4462.1997306993 -2.55E-05
    33 OT DIIS     0.15E+00    2.2     0.00001055     -4462.1997511084 -2.04E-05
    34 OT DIIS     0.15E+00    2.1     0.00001014     -4462.1997672393 -1.61E-05
    35 OT DIIS     0.15E+00    2.0     0.00001036     -4462.1997882597 -2.10E-05
    36 OT DIIS     0.15E+00    2.1     0.00001042     -4462.1998076826 -1.94E-05
    37 OT DIIS     0.15E+00    2.2     0.00001014     -4462.1998222481 -1.46E-05
    38 OT DIIS     0.15E+00    2.1     0.00000953     -4462.1998350286 -1.28E-05

  *** SCF run converged in    38 steps ***


  Electronic density on regular grids:      -1483.9999999359        0.0000000641
  Core density on regular grids:             1483.9999999308       -0.0000000692
  Total charge density on r-space grids:       -0.0000000051
  Total charge density g-space grids:          -0.0000000051

  Overlap energy of the core charge distribution:               0.00000235731471
  Self energy of the core charge distribution:             -10331.29031661960289
  Core Hamiltonian energy:                                   2680.54352813156902
  Hartree energy:                                            3975.90968916841621
  Exchange-correlation energy:                               -786.66273238368353
  Dispersion energy:                                           -0.70000568258493

  Total energy:                                             -4462.19983502857121

  outer SCF iter =    1 RMS gradient =   0.95E-05 energy =      -4462.1998350286
  outer SCF loop converged in   1 iterations or   38 steps


 ENERGY| Total FORCE_EVAL ( QS ) energy [a.u.]:            -4462.199849931583231

 --------  Informations at step =    47 ------------
  Optimization Method        =                 BFGS
  Total Energy               =     -4462.1998499316
  Real energy change         =        -0.0320253108
  Predicted change in energy =        -0.0331059373
  Scaling factor             =         0.0000000000
  Step size                  =         0.3046595663
  Trust radius               =         0.4724315332
  Decrease in energy         =                  YES
  Used time                  =               91.915

  Convergence check :
  Max. step size             =         0.3046595663
  Conv. limit for step size  =         0.0030000000
  Convergence in step size   =                   NO
  RMS step size              =         0.0658846922
  Conv. limit for RMS step   =         0.0015000000
  Convergence in RMS step    =                   NO
  Max. gradient              =         0.0234979313
  Conv. limit for gradients  =         0.0004500000
  Conv. for gradients        =                   NO
  RMS gradient               =         0.0051847066
  Conv. limit for RMS grad.  =         0.0003000000
  Conv. for gradients        =                   NO
 ---------------------------------------------------

 --------------------------
 OPTIMIZATION STEP:     48
 --------------------------

 Number of electrons:                                                       1484
 Number of occupied orbitals:                                                742
 Number of molecular orbitals:                                               742

 Number of orbital functions:                                               3388
 Number of independent orbital functions:                                   3388

 Extrapolation method: ASPC


 SCF WAVEFUNCTION OPTIMIZATION

  ----------------------------------- OT ---------------------------------------
  Minimizer      : DIIS                : direct inversion
                                         in the iterative subspace
                                         using   7 DIIS vectors
                                         safer DIIS on
  Preconditioner : FULL_SINGLE         : diagonalization based
  Precond_solver : DEFAULT
  stepsize       :    0.15000000                  energy_gap     :    0.20000000
  eps_taylor     :   0.10000E-15                  max_taylor     :             4
  ----------------------------------- OT ---------------------------------------

  Step     Update method      Time    Convergence         Total energy    Change
  ------------------------------------------------------------------------------
     1 OT DIIS     0.15E+00    6.1     0.00125533     -4461.9780877243 -4.46E+03
     2 OT DIIS     0.15E+00    2.2     0.00273259     -4461.8944807996  8.36E-02
     3 OT DIIS     0.15E+00    2.0     0.00105772     -4462.1726434322 -2.78E-01
     4 OT DIIS     0.15E+00    2.0     0.00078683     -4462.1956054282 -2.30E-02
     5 OT DIIS     0.15E+00    2.3     0.00038674     -4462.2195648357 -2.40E-02
     6 OT DIIS     0.15E+00    2.0     0.00021682     -4462.2258547454 -6.29E-03
     7 OT DIIS     0.15E+00    2.4     0.00015351     -4462.2280659671 -2.21E-03
     8 OT DIIS     0.15E+00    2.2     0.00010271     -4462.2295561908 -1.49E-03
     9 OT DIIS     0.15E+00    1.9     0.00007246     -4462.2303552615 -7.99E-04
    10 OT DIIS     0.15E+00    2.0     0.00005920     -4462.2308324222 -4.77E-04
    11 OT DIIS     0.15E+00    2.0     0.00007242     -4462.2311005366 -2.68E-04
    12 OT DIIS     0.15E+00    2.1     0.00004587     -4462.2314292726 -3.29E-04
    13 OT DIIS     0.15E+00    2.3     0.00004451     -4462.2316244669 -1.95E-04
    14 OT DIIS     0.15E+00    2.3     0.00003707     -4462.2318315921 -2.07E-04
    15 OT DIIS     0.15E+00    2.0     0.00003423     -4462.2319488988 -1.17E-04
    16 OT DIIS     0.15E+00    2.2     0.00003018     -4462.2320508385 -1.02E-04
    17 OT DIIS     0.15E+00    2.3     0.00002718     -4462.2321368512 -8.60E-05
    18 OT DIIS     0.15E+00    1.9     0.00002434     -4462.2322283469 -9.15E-05
    19 OT DIIS     0.15E+00    2.3     0.00002596     -4462.2323188818 -9.05E-05
    20 OT DIIS     0.15E+00    2.2     0.00002533     -4462.2323126804  6.20E-06
    21 OT DIIS     0.15E+00    1.9     0.00002140     -4462.2323961787 -8.35E-05
    22 OT DIIS     0.15E+00    2.1     0.00001949     -4462.2324485081 -5.23E-05
    23 OT DIIS     0.15E+00    2.0     0.00001878     -4462.2324925260 -4.40E-05
    24 OT DIIS     0.15E+00    2.2     0.00001766     -4462.2325322782 -3.98E-05
    25 OT DIIS     0.15E+00    2.1     0.00001662     -4462.2325701744 -3.79E-05
    26 OT DIIS     0.15E+00    2.0     0.00001526     -4462.2326108898 -4.07E-05
    27 OT DIIS     0.15E+00    2.2     0.00001606     -4462.2326508791 -4.00E-05
    28 OT DIIS     0.15E+00    2.1     0.00001701     -4462.2326576138 -6.73E-06
    29 OT DIIS     0.15E+00    2.1     0.00001478     -4462.2326981280 -4.05E-05
    30 OT DIIS     0.15E+00    1.8     0.00001359     -4462.2327212895 -2.32E-05
    31 OT DIIS     0.15E+00    2.1     0.00001317     -4462.2327464182 -2.51E-05
    32 OT DIIS     0.15E+00    2.2     0.00001264     -4462.2327711117 -2.47E-05
    33 OT DIIS     0.15E+00    2.0     0.00001214     -4462.2327947789 -2.37E-05
    34 OT DIIS     0.15E+00    2.1     0.00001144     -4462.2328172429 -2.25E-05
    35 OT DIIS     0.15E+00    2.0     0.00001177     -4462.2328381511 -2.09E-05
    36 OT DIIS     0.15E+00    1.9     0.00001257     -4462.2328567809 -1.86E-05
    37 OT DIIS     0.15E+00    2.0     0.00001155     -4462.2328763636 -1.96E-05
    38 OT DIIS     0.15E+00    2.5     0.00001081     -4462.2328917570 -1.54E-05
    39 OT DIIS     0.15E+00    2.2     0.00001062     -4462.2329095221 -1.78E-05
    40 OT DIIS     0.15E+00    2.1     0.00001021     -4462.2329274646 -1.79E-05
    41 OT DIIS     0.15E+00    1.9     0.00000996     -4462.2329453247 -1.79E-05

  *** SCF run converged in    41 steps ***


  Electronic density on regular grids:      -1483.9999999226        0.0000000774
  Core density on regular grids:             1483.9999999310       -0.0000000690
  Total charge density on r-space grids:        0.0000000084
  Total charge density g-space grids:           0.0000000084

  Overlap energy of the core charge distribution:               0.00000236904227
  Self energy of the core charge distribution:             -10331.29031661960289
  Core Hamiltonian energy:                                   2680.64233050361509
  Hartree energy:                                            3975.80989589221281
  Exchange-correlation energy:                               -786.69535894716364
  Dispersion energy:                                           -0.69949852275933

  Total energy:                                             -4462.23294532465479

  outer SCF iter =    1 RMS gradient =   0.10E-04 energy =      -4462.2329453247
  outer SCF loop converged in   1 iterations or   41 steps


 ENERGY| Total FORCE_EVAL ( QS ) energy [a.u.]:            -4462.232960097888281

 --------  Informations at step =    48 ------------
  Optimization Method        =                 BFGS
  Total Energy               =     -4462.2329600979
  Real energy change         =        -0.0331101663
  Predicted change in energy =        -0.0280069924
  Scaling factor             =         0.0000000000
  Step size                  =         0.2501015973
  Trust radius               =         0.4724315332
  Decrease in energy         =                  YES
  Used time                  =              100.894

  Convergence check :
  Max. step size             =         0.2501015973
  Conv. limit for step size  =         0.0030000000
  Convergence in step size   =                   NO
  RMS step size              =         0.0474368281
  Conv. limit for RMS step   =         0.0015000000
  Convergence in RMS step    =                   NO
  Max. gradient              =         0.0183374618
  Conv. limit for gradients  =         0.0004500000
  Conv. for gradients        =                   NO
  RMS gradient               =         0.0046695079
  Conv. limit for RMS grad.  =         0.0003000000
  Conv. for gradients        =                   NO
 ---------------------------------------------------

 --------------------------
 OPTIMIZATION STEP:     49
 --------------------------

 Number of electrons:                                                       1484
 Number of occupied orbitals:                                                742
 Number of molecular orbitals:                                               742

 Number of orbital functions:                                               3388
 Number of independent orbital functions:                                   3388

 Extrapolation method: ASPC


 SCF WAVEFUNCTION OPTIMIZATION

  ----------------------------------- OT ---------------------------------------
  Minimizer      : DIIS                : direct inversion
                                         in the iterative subspace
                                         using   7 DIIS vectors
                                         safer DIIS on
  Preconditioner : FULL_SINGLE         : diagonalization based
  Precond_solver : DEFAULT
  stepsize       :    0.15000000                  energy_gap     :    0.20000000
  eps_taylor     :   0.10000E-15                  max_taylor     :             4
  ----------------------------------- OT ---------------------------------------

  Step     Update method      Time    Convergence         Total energy    Change
  ------------------------------------------------------------------------------
     1 OT DIIS     0.15E+00    6.2     0.00105545     -4462.0416086100 -4.46E+03
     2 OT DIIS     0.15E+00    2.0     0.00188264     -4462.1048297679 -6.32E-02
     3 OT DIIS     0.15E+00    2.1     0.00122371     -4462.1891517836 -8.43E-02
     4 OT DIIS     0.15E+00    2.1     0.00065236     -4462.2328052660 -4.37E-02
     5 OT DIIS     0.15E+00    2.0     0.00035408     -4462.2508993917 -1.81E-02
     6 OT DIIS     0.15E+00    2.0     0.00018711     -4462.2561627771 -5.26E-03
     7 OT DIIS     0.15E+00    2.2     0.00012953     -4462.2579446173 -1.78E-03
     8 OT DIIS     0.15E+00    2.4     0.00008119     -4462.2590781984 -1.13E-03
     9 OT DIIS     0.15E+00    2.1     0.00006071     -4462.2595960079 -5.18E-04
    10 OT DIIS     0.15E+00    2.1     0.00005460     -4462.2598862625 -2.90E-04
    11 OT DIIS     0.15E+00    2.1     0.00004121     -4462.2601953877 -3.09E-04
    12 OT DIIS     0.15E+00    2.4     0.00003421     -4462.2603463037 -1.51E-04
    13 OT DIIS     0.15E+00    2.0     0.00002956     -4462.2604997800 -1.53E-04
    14 OT DIIS     0.15E+00    2.0     0.00002639     -4462.2605997995 -1.00E-04
    15 OT DIIS     0.15E+00    2.3     0.00002100     -4462.2606868558 -8.71E-05
    16 OT DIIS     0.15E+00    2.1     0.00002024     -4462.2607463174 -5.95E-05
    17 OT DIIS     0.15E+00    2.2     0.00001748     -4462.2608220914 -7.58E-05
    18 OT DIIS     0.15E+00    2.0     0.00001595     -4462.2608879764 -6.59E-05
    19 OT DIIS     0.15E+00    2.2     0.00001664     -4462.2609346329 -4.67E-05
    20 OT DIIS     0.15E+00    2.2     0.00001730     -4462.2609922688 -5.76E-05
    21 OT DIIS     0.15E+00    2.0     0.00001444     -4462.2610311200 -3.89E-05
    22 OT DIIS     0.15E+00    2.1     0.00001672     -4462.2610611603 -3.00E-05
    23 OT DIIS     0.15E+00    2.1     0.00001300     -4462.2610958668 -3.47E-05
    24 OT DIIS     0.15E+00    2.0     0.00001385     -4462.2611384704 -4.26E-05
    25 OT DIIS     0.15E+00    2.3     0.00001187     -4462.2611602035 -2.17E-05
    26 OT DIIS     0.15E+00    1.9     0.00001179     -4462.2611709983 -1.08E-05
    27 OT DIIS     0.15E+00    2.1     0.00001078     -4462.2612056007 -3.46E-05
    28 OT DIIS     0.15E+00    2.0     0.00001170     -4462.2612196494 -1.40E-05
    29 OT DIIS     0.15E+00    2.2     0.00001034     -4462.2612307224 -1.11E-05
    30 OT DIIS     0.15E+00    2.0     0.00001069     -4462.2612463076 -1.56E-05
    31 OT DIIS     0.15E+00    2.2     0.00000951     -4462.2612573612 -1.11E-05

  *** SCF run converged in    31 steps ***


  Electronic density on regular grids:      -1483.9999999402        0.0000000598
  Core density on regular grids:             1483.9999999310       -0.0000000690
  Total charge density on r-space grids:       -0.0000000092
  Total charge density g-space grids:          -0.0000000092

  Overlap energy of the core charge distribution:               0.00000248031957
  Self energy of the core charge distribution:             -10331.29031661960289
  Core Hamiltonian energy:                                   2681.32796372407392
  Hartree energy:                                            3975.27565302527501
  Exchange-correlation energy:                               -786.87577007085895
  Dispersion energy:                                           -0.69878990037049

  Total energy:                                             -4462.26125736116410

  outer SCF iter =    1 RMS gradient =   0.95E-05 energy =      -4462.2612573612
  outer SCF loop converged in   1 iterations or   31 steps


 ENERGY| Total FORCE_EVAL ( QS ) energy [a.u.]:            -4462.261281247492661

 --------  Informations at step =    49 ------------
  Optimization Method        =                 BFGS
  Total Energy               =     -4462.2612812475
  Real energy change         =        -0.0283211496
  Predicted change in energy =        -0.0417921187
  Scaling factor             =         0.0000000000
  Step size                  =         0.4029207840
  Trust radius               =         0.4724315332
  Decrease in energy         =                  YES
  Used time                  =               80.401

  Convergence check :
  Max. step size             =         0.4029207840
  Conv. limit for step size  =         0.0030000000
  Convergence in step size   =                   NO
  RMS step size              =         0.0715426427
  Conv. limit for RMS step   =         0.0015000000
  Convergence in RMS step    =                   NO
  Max. gradient              =         0.0264879500
  Conv. limit for gradients  =         0.0004500000
  Conv. for gradients        =                   NO
  RMS gradient               =         0.0060195664
  Conv. limit for RMS grad.  =         0.0003000000
  Conv. for gradients        =                   NO
 ---------------------------------------------------

 --------------------------
 OPTIMIZATION STEP:     50
 --------------------------

 Number of electrons:                                                       1484
 Number of occupied orbitals:                                                742
 Number of molecular orbitals:                                               742

 Number of orbital functions:                                               3388
 Number of independent orbital functions:                                   3388

 Extrapolation method: ASPC


 SCF WAVEFUNCTION OPTIMIZATION

  ----------------------------------- OT ---------------------------------------
  Minimizer      : DIIS                : direct inversion
                                         in the iterative subspace
                                         using   7 DIIS vectors
                                         safer DIIS on
  Preconditioner : FULL_SINGLE         : diagonalization based
  Precond_solver : DEFAULT
  stepsize       :    0.15000000                  energy_gap     :    0.20000000
  eps_taylor     :   0.10000E-15                  max_taylor     :             4
  ----------------------------------- OT ---------------------------------------

  Step     Update method      Time    Convergence         Total energy    Change
  ------------------------------------------------------------------------------
     1 OT DIIS     0.15E+00    6.3     0.00156022     -4461.8471750884 -4.46E+03
     2 OT DIIS     0.15E+00    2.3     0.00285427     -4461.9158614875 -6.87E-02
     3 OT DIIS     0.15E+00    2.3     0.00158683     -4462.1786531743 -2.63E-01
     4 OT DIIS     0.15E+00    2.3     0.00088963     -4462.2467505388 -6.81E-02
     5 OT DIIS     0.15E+00    2.0     0.00046704     -4462.2803513905 -3.36E-02
     6 OT DIIS     0.15E+00    2.4     0.00025828     -4462.2895180267 -9.17E-03
     7 OT DIIS     0.15E+00    2.2     0.00017736     -4462.2929106613 -3.39E-03
     8 OT DIIS     0.15E+00    2.3     0.00011277     -4462.2949291341 -2.02E-03
     9 OT DIIS     0.15E+00    2.0     0.00008569     -4462.2958607655 -9.32E-04
    10 OT DIIS     0.15E+00    2.0     0.00006633     -4462.2964386678 -5.78E-04
    11 OT DIIS     0.15E+00    2.1     0.00007920     -4462.2967329099 -2.94E-04
    12 OT DIIS     0.15E+00    2.2     0.00004711     -4462.2970849948 -3.52E-04
    13 OT DIIS     0.15E+00    2.0     0.00004378     -4462.2973023690 -2.17E-04
    14 OT DIIS     0.15E+00    2.3     0.00003665     -4462.2974935962 -1.91E-04
    15 OT DIIS     0.15E+00    2.2     0.00003167     -4462.2976092313 -1.16E-04
    16 OT DIIS     0.15E+00    2.1     0.00002797     -4462.2977056823 -9.65E-05
    17 OT DIIS     0.15E+00    2.3     0.00002585     -4462.2977965569 -9.09E-05
    18 OT DIIS     0.15E+00    2.2     0.00002317     -4462.2978805825 -8.40E-05
    19 OT DIIS     0.15E+00    2.0     0.00002343     -4462.2979747181 -9.41E-05
    20 OT DIIS     0.15E+00    1.9     0.00002442     -4462.2979744882  2.30E-07
[...]
  outer SCF loop converged in   2 iterations or   74 steps


 ENERGY| Total FORCE_EVAL ( QS ) energy [a.u.]:            -4462.660748877586229

 --------  Informations at step =   270 ------------
  Optimization Method        =                 BFGS
  Total Energy               =     -4462.6607488776
  Real energy change         =        -0.0001234394
  Predicted change in energy =        -0.0000628253
  Scaling factor             =         0.4573637017
  Step size                  =         0.0116809469
  Trust radius               =         0.4724315332
  Decrease in energy         =                   NO
  Used time                  =              359.622

  Convergence check :
  Max. step size             =         0.0116809469
  Conv. limit for step size  =         0.0030000000
  Convergence in step size   =                   NO
  RMS step size              =         0.0014875775
  Conv. limit for RMS step   =         0.0015000000
  Convergence in RMS step    =                  YES
  Max. gradient              =         0.0018068810
  Conv. limit for gradients  =         0.0004500000
  Conv. for gradients        =                   NO
  RMS gradient               =         0.0003442520
  Conv. limit for RMS grad.  =         0.0003000000
  Conv. for gradients        =                   NO
 ---------------------------------------------------

 --------------------------
 OPTIMIZATION STEP:    271
 --------------------------

 Number of electrons:                                                       1484
 Number of occupied orbitals:                                                742
 Number of molecular orbitals:                                               742

 Number of orbital functions:                                               3388
 Number of independent orbital functions:                                   3388

 Extrapolation method: ASPC


 SCF WAVEFUNCTION OPTIMIZATION

  ----------------------------------- OT ---------------------------------------
  Minimizer      : DIIS                : direct inversion
                                         in the iterative subspace
                                         using   7 DIIS vectors
                                         safer DIIS on
  Preconditioner : FULL_SINGLE         : diagonalization based
  Precond_solver : DEFAULT
  stepsize       :    0.15000000                  energy_gap     :    0.20000000
  eps_taylor     :   0.10000E-15                  max_taylor     :             4
  ----------------------------------- OT ---------------------------------------

  Step     Update method      Time    Convergence         Total energy    Change
  ------------------------------------------------------------------------------
     1 OT DIIS     0.15E+00   19.5     0.00235895     -4462.4046628709 -4.46E+03
     2 OT DIIS     0.15E+00    3.8     0.00657685     -4460.2300325491  2.17E+00
     3 OT DIIS     0.15E+00    4.7     0.00246318     -4462.2894643988 -2.06E+00
     4 OT DIIS     0.15E+00    6.9     0.00180227     -4462.4896165134 -2.00E-01
     5 OT DIIS     0.15E+00    4.8     0.00113380     -4462.5839173421 -9.43E-02
     6 OT DIIS     0.15E+00    4.7     0.00060945     -4462.6218655862 -3.79E-02
     7 OT DIIS     0.15E+00    6.2     0.00052819     -4462.6297809925 -7.92E-03
     8 OT DIIS     0.15E+00    5.4     0.00019644     -4462.6403517514 -1.06E-02
     9 OT DIIS     0.15E+00    3.5     0.00018052     -4462.6428111598 -2.46E-03
    10 OT DIIS     0.15E+00    6.7     0.00015933     -4462.6447031566 -1.89E-03
    11 OT DIIS     0.15E+00    4.5     0.00009622     -4462.6464692990 -1.77E-03
    12 OT DIIS     0.15E+00    5.5     0.00009900     -4462.6470054404 -5.36E-04
    13 OT DIIS     0.15E+00    5.0     0.00011317     -4462.6475839184 -5.78E-04
    14 OT DIIS     0.15E+00    4.0     0.00005968     -4462.6488698779 -1.29E-03
    15 OT DIIS     0.15E+00    3.8     0.00006870     -4462.6493426697 -4.73E-04
    16 OT DIIS     0.15E+00    5.6     0.00006949     -4462.6498488150 -5.06E-04
    17 OT DIIS     0.15E+00    3.6     0.00005433     -4462.6504110706 -5.62E-04
    18 OT DIIS     0.15E+00    2.8     0.00005399     -4462.6507540869 -3.43E-04
    19 OT DIIS     0.15E+00    3.6     0.00005130     -4462.6508247919 -7.07E-05
    20 OT DIIS     0.15E+00    3.7     0.00004706     -4462.6513120033 -4.87E-04
    21 OT SD       0.15E+00    7.5     0.00005145     -4462.6516431510 -3.31E-04
    22 OT DIIS     0.15E+00    5.8     0.00022360     -4462.6505392501  1.10E-03
    23 OT DIIS     0.15E+00    3.3     0.00003952     -4462.6522617470 -1.72E-03
    24 OT DIIS     0.15E+00    3.6     0.00003760     -4462.6525355419 -2.74E-04
    25 OT DIIS     0.15E+00    5.1     0.00003291     -4462.6527178409 -1.82E-04
    26 OT DIIS     0.15E+00    4.1     0.00003298     -4462.6528045824 -8.67E-05
    27 OT DIIS     0.15E+00    2.8     0.00003416     -4462.6532888825 -4.84E-04
    28 OT SD       0.15E+00    4.9     0.00003116     -4462.6542870427 -9.98E-04
    29 OT DIIS     0.15E+00    7.8     0.00009232     -4462.6542552015  3.18E-05
    30 OT DIIS     0.15E+00    2.3     0.00002774     -4462.6547065578 -4.51E-04
    31 OT DIIS     0.15E+00    3.2     0.00002619     -4462.6550825912 -3.76E-04
    32 OT DIIS     0.15E+00    5.4     0.00002525     -4462.6553373573 -2.55E-04
    33 OT DIIS     0.15E+00    3.3     0.00002795     -4462.6558531203 -5.16E-04
    34 OT SD       0.15E+00    6.5     0.00003805     -4462.6569119322 -1.06E-03
    35 OT DIIS     0.15E+00    5.0     0.00014459     -4462.6563995171  5.12E-04
    36 OT DIIS     0.15E+00    2.3     0.00002242     -4462.6568479668 -4.48E-04
    37 OT DIIS     0.15E+00    4.6     0.00002537     -4462.6573782552 -5.30E-04
    38 OT DIIS     0.15E+00    4.2     0.00004056     -4462.6579410552 -5.63E-04
    39 OT DIIS     0.15E+00    3.5     0.00002705     -4462.6580859498 -1.45E-04
    40 OT DIIS     0.15E+00    4.7     0.00002715     -4462.6584420122 -3.56E-04
    41 OT SD       0.15E+00    3.1     0.00002214     -4462.6586325125 -1.91E-04
    42 OT DIIS     0.15E+00    5.5     0.00008606     -4462.6584665317  1.66E-04
    43 OT DIIS     0.15E+00    4.7     0.00001953     -4462.6588124435 -3.46E-04
    44 OT DIIS     0.15E+00    4.7     0.00001643     -4462.6589446382 -1.32E-04
    45 OT SD       0.15E+00    3.6     0.00001628     -4462.6590456970 -1.01E-04
    46 OT DIIS     0.15E+00    3.3     0.00006315     -4462.6589715370  7.42E-05
    47 OT DIIS     0.15E+00    2.8     0.00001285     -4462.6592083002 -2.37E-04
    48 OT DIIS     0.15E+00    4.9     0.00001154     -4462.6592639639 -5.57E-05
    49 OT DIIS     0.15E+00    6.3     0.00001192     -4462.6592591630  4.80E-06
    50 OT DIIS     0.15E+00    4.2     0.00001026     -4462.6593672447 -1.08E-04

  Leaving inner SCF loop after reaching    50 steps.


  Electronic density on regular grids:      -1483.9999996838        0.0000003162
  Core density on regular grids:             1483.9999999306       -0.0000000694
  Total charge density on r-space grids:        0.0000002468
  Total charge density g-space grids:           0.0000002468

  Overlap energy of the core charge distribution:               0.00000263553677
  Self energy of the core charge distribution:             -10331.29031661960289
  Core Hamiltonian energy:                                   2681.01456145717657
  Hartree energy:                                            3975.26433419325667
  Exchange-correlation energy:                               -786.93876701740783
  Dispersion energy:                                           -0.70918189370577

  Total energy:                                             -4462.65936724474614

  outer SCF iter =    1 RMS gradient =   0.10E-04 energy =      -4462.6593672447

  ----------------------------------- OT ---------------------------------------
  Minimizer      : DIIS                : direct inversion
                                         in the iterative subspace
                                         using   7 DIIS vectors
                                         safer DIIS on
  Preconditioner : FULL_SINGLE         : diagonalization based
  Precond_solver : DEFAULT
  stepsize       :    0.15000000                  energy_gap     :    0.20000000
  eps_taylor     :   0.10000E-15                  max_taylor     :             4
  ----------------------------------- OT ---------------------------------------

  Step     Update method      Time    Convergence         Total energy    Change
  ------------------------------------------------------------------------------
     1 OT DIIS     0.15E+00   19.7     0.00001013     -4462.6594486422 -8.14E-05
     2 OT DIIS     0.15E+00    5.6     0.00001391     -4462.6594788746 -3.02E-05
     3 OT DIIS     0.15E+00    3.4     0.00000971     -4462.6594911690 -1.23E-05

  *** SCF run converged in     3 steps ***


  Electronic density on regular grids:      -1483.9999996837        0.0000003163
  Core density on regular grids:             1483.9999999306       -0.0000000694
  Total charge density on r-space grids:        0.0000002469
  Total charge density g-space grids:           0.0000002469

  Overlap energy of the core charge distribution:               0.00000263553677
  Self energy of the core charge distribution:             -10331.29031661960289
  Core Hamiltonian energy:                                   2681.01135205344599
  Hartree energy:                                            3975.26720919176432
  Exchange-correlation energy:                               -786.93855653641231
  Dispersion energy:                                           -0.70918189370577

  Total energy:                                             -4462.65949116897355

  outer SCF iter =    2 RMS gradient =   0.97E-05 energy =      -4462.6594911690
  outer SCF loop converged in   2 iterations or   53 steps


 ENERGY| Total FORCE_EVAL ( QS ) energy [a.u.]:            -4462.659509267544308

 --------  Informations at step =   271 ------------
  Optimization Method        =                 BFGS
  Total Energy               =     -4462.6595092675
  Real energy change         =         0.0012396100
  Predicted change in energy =        -0.0000547180
  Scaling factor             =         0.4573637017
  Step size                  =         0.0059732499
  Trust radius               =         0.4724315332
  Decrease in energy         =                   NO
  Used time                  =              285.930

  Convergence check :
  Max. step size             =         0.0059732499
  Conv. limit for step size  =         0.0030000000
  Convergence in step size   =                   NO
  RMS step size              =         0.0009018765
  Conv. limit for RMS step   =         0.0015000000
  Convergence in RMS step    =                  YES
  Max. gradient              =         0.0023375364
  Conv. limit for gradients  =         0.0004500000
  Conv. for gradients        =                   NO
  RMS gradient               =         0.0004432101
  Conv. limit for RMS grad.  =         0.0003000000
  Conv. for gradients        =                   NO
 ---------------------------------------------------

 --------------------------
 OPTIMIZATION STEP:    272
 --------------------------

 Number of electrons:                                                       1484
 Number of occupied orbitals:                                                742
 Number of molecular orbitals:                                               742

 Number of orbital functions:                                               3388
 Number of independent orbital functions:                                   3388

 Extrapolation method: ASPC


 SCF WAVEFUNCTION OPTIMIZATION

  ----------------------------------- OT ---------------------------------------
  Minimizer      : DIIS                : direct inversion
                                         in the iterative subspace
                                         using   7 DIIS vectors
                                         safer DIIS on
  Preconditioner : FULL_SINGLE         : diagonalization based
  Precond_solver : DEFAULT
  stepsize       :    0.15000000                  energy_gap     :    0.20000000
  eps_taylor     :   0.10000E-15                  max_taylor     :             4
  ----------------------------------- OT ---------------------------------------

  Step     Update method      Time    Convergence         Total energy    Change
  ------------------------------------------------------------------------------
     1 OT DIIS     0.15E+00   16.2     0.00324803     -4462.2069828685 -4.46E+03
     2 OT DIIS     0.15E+00    3.5     0.00873201     -4458.7650284222  3.44E+00
     3 OT DIIS     0.15E+00    4.2     0.00305796     -4462.1114751799 -3.35E+00
     4 OT DIIS     0.15E+00    5.0     0.00273186     -4462.3503769873 -2.39E-01
     5 OT DIIS     0.15E+00    2.9     0.00250790     -4462.4089223989 -5.85E-02
     6 OT DIIS     0.15E+00    3.7     0.00073969     -4462.6078119308 -1.99E-01
     7 OT DIIS     0.15E+00    4.3     0.00053714     -4462.6218936898 -1.41E-02
     8 OT DIIS     0.15E+00    3.0     0.00041422     -4462.6312965323 -9.40E-03
     9 OT DIIS     0.15E+00    5.2     0.00029958     -4462.6399758661 -8.68E-03
    10 OT DIIS     0.15E+00    2.8     0.00021398     -4462.6430975650 -3.12E-03
    11 OT DIIS     0.15E+00    4.5     0.00025845     -4462.6440258461 -9.28E-04
    12 OT DIIS     0.15E+00    3.9     0.00017305     -4462.6453789385 -1.35E-03
    13 OT DIIS     0.15E+00    5.7     0.00011685     -4462.6463797185 -1.00E-03
    14 OT DIIS     0.15E+00    3.3     0.00012462     -4462.6479852996 -1.61E-03
    15 OT DIIS     0.15E+00    3.0     0.00012266     -4462.6482268587 -2.42E-04
    16 OT DIIS     0.15E+00    7.2     0.00008553     -4462.6487055757 -4.79E-04
    17 OT DIIS     0.15E+00    4.2     0.00008696     -4462.6493225953 -6.17E-04
    18 OT DIIS     0.15E+00    3.9     0.00008616     -4462.6498954804 -5.73E-04
    19 OT DIIS     0.15E+00    4.0     0.00008367     -4462.6503049816 -4.10E-04
    20 OT DIIS     0.15E+00    4.3     0.00008254     -4462.6504967752 -1.92E-04
    21 OT DIIS     0.15E+00    2.4     0.00007363     -4462.6504152897  8.15E-05
    22 OT DIIS     0.15E+00    3.1     0.00005211     -4462.6512163783 -8.01E-04
    23 OT DIIS     0.15E+00    6.2     0.00006393     -4462.6513304727 -1.14E-04
    24 OT DIIS     0.15E+00    4.3     0.00005135     -4462.6514176812 -8.72E-05
    25 OT DIIS     0.15E+00    2.0     0.00004827     -4462.6517584306 -3.41E-04
    26 OT DIIS     0.15E+00    4.2     0.00004825     -4462.6520217723 -2.63E-04
    27 OT DIIS     0.15E+00    2.8     0.00004832     -4462.6522110918 -1.89E-04
    28 OT DIIS     0.15E+00    4.0     0.00004881     -4462.6523402275 -1.29E-04
    29 OT DIIS     0.15E+00    5.0     0.00005410     -4462.6522925520  4.77E-05
    30 OT DIIS     0.15E+00    5.9     0.00003585     -4462.6526699667 -3.77E-04
    31 OT DIIS     0.15E+00    2.8     0.00004171     -4462.6528090792 -1.39E-04
    32 OT DIIS     0.15E+00    3.3     0.00003837     -4462.6528686288 -5.95E-05
    33 OT DIIS     0.15E+00    6.5     0.00003456     -4462.6530206342 -1.52E-04
    34 OT DIIS     0.15E+00    6.2     0.00003357     -4462.6531743304 -1.54E-04
    35 OT DIIS     0.15E+00    5.5     0.00003330     -4462.6532709553 -9.66E-05
    36 OT DIIS     0.15E+00    3.8     0.00003425     -4462.6534017402 -1.31E-04
    37 OT DIIS     0.15E+00    5.4     0.00004073     -4462.6534950605 -9.33E-05
    38 OT DIIS     0.15E+00    3.2     0.00002892     -4462.6535628159 -6.78E-05
    39 OT DIIS     0.15E+00    4.6     0.00003067     -4462.6537040552 -1.41E-04
    40 OT DIIS     0.15E+00    3.1     0.00003049     -4462.6537977858 -9.37E-05
    41 OT DIIS     0.15E+00    5.2     0.00002886     -4462.6538925749 -9.48E-05
    42 OT DIIS     0.15E+00    3.9     0.00002792     -4462.6539804582 -8.79E-05
    43 OT DIIS     0.15E+00    5.4     0.00002784     -4462.6540348654 -5.44E-05
    44 OT DIIS     0.15E+00    4.2     0.00002744     -4462.6541382352 -1.03E-04
    45 OT SD       0.15E+00    4.2     0.00003120     -4462.6543071422 -1.69E-04
    46 OT DIIS     0.15E+00    4.2     0.00013037     -4462.6539957771  3.11E-04
    47 OT DIIS     0.15E+00    3.5     0.00003468     -4462.6548892584 -8.93E-04
    48 OT SD       0.15E+00    3.9     0.00003255     -4462.6549702872 -8.10E-05
    49 OT DIIS     0.15E+00    2.9     0.00013820     -4462.6545409652  4.29E-04
    50 OT DIIS     0.15E+00    5.6     0.00003165     -4462.6553684072 -8.27E-04

  Leaving inner SCF loop after reaching    50 steps.


  Electronic density on regular grids:      -1483.9999996912        0.0000003088
  Core density on regular grids:             1483.9999999307       -0.0000000693
  Total charge density on r-space grids:        0.0000002395
  Total charge density g-space grids:           0.0000002395

  Overlap energy of the core charge distribution:               0.00000264606064
  Self energy of the core charge distribution:             -10331.29031661960289
  Core Hamiltonian energy:                                   2680.99698594200845
  Hartree energy:                                            3975.28221964381601
  Exchange-correlation energy:                               -786.93503578843956
  Dispersion energy:                                           -0.70922423104516

  Total energy:                                             -4462.65536840720324

  outer SCF iter =    1 RMS gradient =   0.32E-04 energy =      -4462.6553684072

  ----------------------------------- OT ---------------------------------------
  Minimizer      : DIIS                : direct inversion
                                         in the iterative subspace
                                         using   7 DIIS vectors
                                         safer DIIS on
  Preconditioner : FULL_SINGLE         : diagonalization based
  Precond_solver : DEFAULT
  stepsize       :    0.15000000                  energy_gap     :    0.20000000
  eps_taylor     :   0.10000E-15                  max_taylor     :             4
  ----------------------------------- OT ---------------------------------------

  Step     Update method      Time    Convergence         Total energy    Change
  ------------------------------------------------------------------------------
     1 OT DIIS     0.15E+00   28.0     0.00002999     -4462.6563997148 -1.03E-03
[1701904452.953367] [ibc11b02n12:101726:0]        mm_xpmem.c:135  UCX  ERROR   failed to attach xpmem apid 0x1200018d5e offset 0x212b2000 length 40960: Cannot allocate memory
[1701904452.953565] [ibc11b02n12:101726:0]        ucp_rkey.c:449  UCX  ERROR   failed to unpack remote key from remote md[7]: Input/output error
[1701904452.960864] [ibc11b02n12:101726:0]         pgtable.c:643  UCX  WARN    failed to remove pgtable region0x1f4dbde0 [0x2b42cee85818..0x2b42cee85818]
[1701904453.619122] [ibc11b02n12:101726:0]          rcache.c:674  UCX  WARN    xpmem_remote_mem: destroying inuse region 0x1f4dbde0 [0x2b42cee85818..0x2b42cee85818] g- rw ref 4294967295 apid 0x700018d5e attach_addr (nil) rmem 0x74f3880
[1701904453.657151] [ibc11b02n12:101726:0]          rcache.c:674  UCX  WARN    xpmem_remote_mem: destroying inuse region 0x74f79d0 [0x2adf4174d000..0x2adf41750000] g- rw ref 1 apid 0x700018d5e attach_addr 0x2b42dad18000 rmem 0x74f3880
[1701904453.658877] [ibc11b02n12:101726:0]           mpool.c:54   UCX  WARN    object 0x2b42dacf97a8 was not returned to mpool rcache_mp
[1701904453.659016] [ibc11b02n12:101726:0]           mpool.c:54   UCX  WARN    object 0x2b42dad040f8 was not returned to mpool rcache_mp
[1701904453.659055] [ibc11b02n12:101726:0]           mpool.c:54   UCX  WARN    object 0x2b42dad08088 was not returned to mpool rcache_mp
[1701904453.660620] [ibc11b02n12:101726:0]         pgtable.c:682  UCX  WARN    page table not empty during cleanup
