 DBCSR| CPU Multiplication driver                                           XSMM
 DBCSR| Multrec recursion limit                                              512
 DBCSR| Multiplication stack size                                           1000
 DBCSR| Maximum elements for images                                    UNLIMITED
 DBCSR| Multiplicative factor virtual images                                   1
 DBCSR| Use multiplication densification                                       T
 DBCSR| Multiplication size stacks                                             3
 DBCSR| Use memory pool for CPU allocation                                     F
 DBCSR| Number of 3D layers                                               SINGLE
 DBCSR| Use MPI memory allocation                                              F
 DBCSR| Use RMA algorithm                                                      F
 DBCSR| Use Communication thread                                               T
 DBCSR| Communication thread load                                             87
 DBCSR| MPI: My node id                                                        0
 DBCSR| MPI: Number of nodes                                                  56
 DBCSR| OMP: Current number of threads                                         1
 DBCSR| OMP: Max number of threads                                             1
 DBCSR| Split modifier for TAS multiplication algorithm                  1.0E+00


  **** **** ******  **  PROGRAM STARTED AT               2023-12-05 19:03:22.250
 ***** ** ***  *** **   PROGRAM STARTED ON                           ibc11b02n05
 **    ****   ******    PROGRAM STARTED BY                                 junli
 ***** **    ** ** **   PROGRAM PROCESS ID                                 43076
  **** **  *******  **  PROGRAM STARTED IN /WORK/junli_work/libin/1_U28/2_try_fu
                                           ll

 CP2K| version string:                                          CP2K version 9.1
 CP2K| source code revision number:                                  git:d8d7100
 CP2K| cp2kflags: omp libint fftw3 libxc elpa parallel mpi3 scalapack cosma xsmm
 CP2K|             plumed2 spglib libvori libbqb
 CP2K| is freely available from                            https://www.cp2k.org/
 CP2K| Program compiled at                          Sun Aug 13 14:10:33 CST 2023
 CP2K| Program compiled on                                               ibcln01
 CP2K| Program compiled for                                                local
 CP2K| Data directory path                         /apps/soft/cp2k/cp2k-9.1/data
 CP2K| Input file name                                                  cp2k.inp

 GLOBAL| Force Environment number                                              1
 GLOBAL| Basis set file name                                        BASIS_MOLOPT
 GLOBAL| Potential file name                                      GTH_POTENTIALS
 GLOBAL| MM Potential file name                                     MM_POTENTIAL
 GLOBAL| Coordinate file name                                          U28_9.xyz
 GLOBAL| Method name                                                        CP2K
 GLOBAL| Project name                                                        U28
 GLOBAL| Run type                                                        GEO_OPT
 GLOBAL| FFT library                                                       FFTW3
 GLOBAL| Diagonalization library                                            ELPA
 GLOBAL| Minimum number of eigenvectors for ELPA usage                        16
 GLOBAL| Orthonormality check for eigenvectors                          DISABLED
 GLOBAL| Matrix multiplication library                                     COSMA
 GLOBAL| All-to-all communication in single precision                          F
 GLOBAL| FFTs using library dependent lengths                                  F
 GLOBAL| Grid backend                                                       AUTO
 GLOBAL| Global print level                                                  LOW
 GLOBAL| MPI I/O enabled                                                       T
 GLOBAL| Total number of message passing processes                            56
 GLOBAL| Number of threads for this process                                    1
 GLOBAL| This output is from process                                           0
 GLOBAL| Stack size for threads created by OpenMP (OMP_STACKSIZE)        default
 GLOBAL| CPU model name                Intel(R) Xeon(R) Gold 6258R CPU @ 2.70GHz
 GLOBAL| CPUID                                                              1003

 MEMORY| system memory details [Kb]
 MEMORY|                        rank 0           min           max       average
 MEMORY| MemTotal            196695916     196695916     196695916     196695916
 MEMORY| MemFree             170873676     170873676     170873676     170873676
 MEMORY| Buffers                     0             0             0             0
 MEMORY| Cached                4870648       4870648       4870648       4870648
 MEMORY| Slab                  1097288       1097288       1097288       1097288
 MEMORY| SReclaimable           332008        332008        332008        332008
 MEMORY| MemLikelyFree       176076332     176076332     176076332     176076332


 *******************************************************************************
 *******************************************************************************
 **                                                                           **
 **     #####                         ##              ##                      **
 **    ##   ##            ##          ##              ##                      **
 **   ##     ##                       ##            ######                    **
 **   ##     ##  ##   ##  ##   #####  ##  ##   ####   ##    #####    #####    **
 **   ##     ##  ##   ##  ##  ##      ## ##   ##      ##   ##   ##  ##   ##   **
 **   ##  ## ##  ##   ##  ##  ##      ####     ###    ##   ######   ######    **
 **    ##  ###   ##   ##  ##  ##      ## ##      ##   ##   ##       ##        **
 **     #######   #####   ##   #####  ##  ##  ####    ##    #####   ##        **
 **           ##                                                    ##        **
 **                                                                           **
 **                                                ... make the atoms dance   **
 **                                                                           **
 **            Copyright (C) by CP2K developers group (2000-2021)             **
 **                      J. Chem. Phys. 152, 194103 (2020)                    **
 **                                                                           **
 *******************************************************************************


 TOTAL NUMBERS AND MAXIMUM NUMBERS

  Total number of            - Atomic kinds:                                   3
                             - Atoms:                                        196
                             - Shell sets:                                   196
                             - Shells:                                      1148
                             - Primitive Cartesian functions:               1064
                             - Cartesian basis functions:                   3948
                             - Spherical basis functions:                   3388

  Maximum angular momentum of- Orbital basis functions:                        4
                             - Local part of the GTH pseudopotential:          2
                             - Non-local part of the GTH pseudopotential:      3


 SCF PARAMETERS         Density guess:                                   RESTART
                        --------------------------------------------------------
                        max_scf:                                              50
                        max_scf_history:                                       0
                        max_diis:                                              4
                        --------------------------------------------------------
                        eps_scf:                                        1.00E-06
                        eps_scf_history:                                0.00E+00
                        eps_diis:                                       1.00E-01
                        eps_eigval:                                     1.00E-05
                        --------------------------------------------------------
                        level_shift [a.u.]:                                 0.00
                        --------------------------------------------------------
                        Outer loop SCF in use 
                        No variables optimised in outer loop
                        eps_scf                                         1.00E-06
                        max_scf                                               10
                        No outer loop optimization
                        step_size                                       5.00E-01

 BFGS| Use rational function optimization for step estimation:                NO
 BFGS| Use model Hessian for initial guess:                                  YES
 BFGS| Restart Hessian:                                                       NO
 BFGS| Trust radius:                                                       0.472

 *******************************************************************************
 ***                     STARTING GEOMETRY OPTIMIZATION                      ***
 ***                                   BFGS                                  ***
 *******************************************************************************

 Number of electrons:                                                       1484
 Number of occupied orbitals:                                                742
 Number of molecular orbitals:                                               742

 Number of orbital functions:                                               3388
 Number of independent orbital functions:                                   3388

 Extrapolation method: initial_guess

 *** WARNING in qs_initial_guess.F:309 :: User requested to restart the    ***
 *** wavefunction from the file named: U28-RESTART.wfn. This file does not ***
 *** exist. Please check the existence of the file or change properly the  ***
 *** value of the keyword WFN_RESTART_FILE_NAME. Calculation continues     ***
 *** using ATOMIC GUESS.                                                   ***



 SCF WAVEFUNCTION OPTIMIZATION

  ----------------------------------- OT ---------------------------------------
  Minimizer      : DIIS                : direct inversion
                                         in the iterative subspace
                                         using   7 DIIS vectors
                                         safer DIIS on
  Preconditioner : FULL_SINGLE         : diagonalization based
  Precond_solver : DEFAULT
  stepsize       :    0.15000000                  energy_gap     :    0.20000000
  eps_taylor     :   0.10000E-15                  max_taylor     :             4
  ----------------------------------- OT ---------------------------------------

  Step     Update method      Time    Convergence         Total energy    Change
  ------------------------------------------------------------------------------
     1 OT DIIS     0.15E+00    6.0     0.06488406     -4220.8774346228 -4.22E+03
     2 OT DIIS     0.15E+00    2.0     0.08687830     -3822.9355235140  3.98E+02
     3 OT DIIS     0.15E+00    2.1     0.09514100     -3995.4954394299 -1.73E+02
     4 OT DIIS     0.15E+00    2.1     0.20692742     -3837.1508221961  1.58E+02
     5 OT DIIS     0.15E+00    2.1     0.16481472     -4015.1236056361 -1.78E+02
     6 OT DIIS     0.15E+00    1.9     0.11975383     -4117.5181207746 -1.02E+02
     7 OT DIIS     0.15E+00    2.1     0.16315586     -4096.1246005087  2.14E+01
     8 OT DIIS     0.15E+00    2.1     0.08366163     -4213.1971417343 -1.17E+02
     9 OT DIIS     0.15E+00    2.1     0.11781232     -4187.2873322973  2.59E+01
    10 OT DIIS     0.15E+00    2.0     0.08642821     -4211.8794085217 -2.46E+01
    11 OT DIIS     0.15E+00    2.1     0.15605417     -4118.2912908649  9.36E+01
    12 OT DIIS     0.15E+00    2.0     0.08544112     -4226.1997326056 -1.08E+02
    13 OT DIIS     0.15E+00    1.9     0.18641530     -4062.5776960909  1.64E+02
    14 OT DIIS     0.15E+00    1.9     0.15898305     -4101.2626549323 -3.87E+01
    15 OT DIIS     0.15E+00    2.0     0.27126214     -3880.8170179387  2.20E+02
    16 OT DIIS     0.15E+00    2.0     0.17970468     -4014.9079170052 -1.34E+02
    17 OT DIIS     0.15E+00    2.0     0.34650388     -3576.3750386089  4.39E+02
    18 OT DIIS     0.15E+00    2.0     0.18900196     -3891.8306713659 -3.15E+02
    19 OT DIIS     0.15E+00    2.0     0.38300477     -3354.5077151848  5.37E+02
    20 OT DIIS     0.15E+00    2.0     0.20104976     -3736.4167819378 -3.82E+02
    21 OT DIIS     0.15E+00    1.9     0.46172226     -2860.5408337733  8.76E+02
    22 OT DIIS     0.15E+00    2.1     0.15266499     -3673.3041473384 -8.13E+02
    23 OT DIIS     0.15E+00    2.1     0.25856867     -3444.5561076668  2.29E+02
    24 OT DIIS     0.15E+00    2.1     0.29713012     -3310.4172169954  1.34E+02
    25 OT DIIS     0.15E+00    2.0     0.35178466     -3103.8409267149  2.07E+02
    26 OT DIIS     0.15E+00    2.1     0.24991591     -3395.8001881363 -2.92E+02
    27 OT DIIS     0.15E+00    2.1     0.26733966     -3368.1372353206  2.77E+01
    28 OT DIIS     0.15E+00    2.0     0.32717941     -3076.9443970004  2.91E+02
    29 OT DIIS     0.15E+00    2.1     0.23536741     -3448.0380305531 -3.71E+02
    30 OT DIIS     0.15E+00    2.0     0.34662393     -2845.4274625549  6.03E+02
    31 OT DIIS     0.15E+00    1.9     0.19603730     -3374.9934862231 -5.30E+02
    32 OT DIIS     0.15E+00    2.0     0.21269174     -3302.9286986164  7.21E+01
    33 OT DIIS     0.15E+00    1.8     0.24801524     -3267.1839442250  3.57E+01
    34 OT DIIS     0.15E+00    2.0     0.29566258     -3036.2088146011  2.31E+02
    35 OT DIIS     0.15E+00    2.0     0.21861650     -3362.0362269673 -3.26E+02
    36 OT DIIS     0.15E+00    2.0     0.20978323     -3410.1845667797 -4.81E+01
    37 OT DIIS     0.15E+00    2.1     0.22618914     -3352.9107722138  5.73E+01
    38 OT DIIS     0.15E+00    2.0     0.16231694     -3632.6937252180 -2.80E+02
    39 OT DIIS     0.15E+00    2.0     0.23647342     -3369.1963453081  2.63E+02
    40 OT DIIS     0.15E+00    2.0     0.15032370     -3683.9105759923 -3.15E+02
    41 OT DIIS     0.15E+00    1.8     0.16531478     -3660.7222512815  2.32E+01
    42 OT DIIS     0.15E+00    1.9     0.14563602     -3796.2721761767 -1.36E+02
    43 OT DIIS     0.15E+00    2.0     0.11712640     -3888.4081794155 -9.21E+01
    44 OT DIIS     0.15E+00    2.1     0.13019980     -3921.0108920603 -3.26E+01
    45 OT DIIS     0.15E+00    1.9     0.08898683     -4042.9177418917 -1.22E+02
    46 OT DIIS     0.15E+00    2.1     0.10455765     -4051.7642849643 -8.85E+00
    47 OT DIIS     0.15E+00    2.0     0.05280719     -4178.4388133072 -1.27E+02
    48 OT DIIS     0.15E+00    2.1     0.07079238     -4171.8231948438  6.62E+00
    49 OT DIIS     0.15E+00    2.0     0.03418079     -4242.2973240110 -7.05E+01
    50 OT DIIS     0.15E+00    2.0     0.04190904     -4242.2105887299  8.67E-02

  Leaving inner SCF loop after reaching    50 steps.


  Electronic density on regular grids:      -1484.0000000058       -0.0000000058
  Core density on regular grids:             1483.9999999310       -0.0000000690
  Total charge density on r-space grids:       -0.0000000748
  Total charge density g-space grids:          -0.0000000748

  Overlap energy of the core charge distribution:               2.68451751121079
  Self energy of the core charge distribution:             -10331.29031661960289
  Core Hamiltonian energy:                                   3036.22923731239916
  Hartree energy:                                            3851.41613702407813
  Exchange-correlation energy:                               -800.49452552441198
  Dispersion energy:                                           -0.75563843354115

  Total energy:                                             -4242.21058872986850

  outer SCF iter =    1 RMS gradient =   0.42E-01 energy =      -4242.2105887299

  ----------------------------------- OT ---------------------------------------
  Minimizer      : DIIS                : direct inversion
                                         in the iterative subspace
                                         using   7 DIIS vectors
                                         safer DIIS on
  Preconditioner : FULL_SINGLE         : diagonalization based
  Precond_solver : DEFAULT
  stepsize       :    0.15000000                  energy_gap     :    0.20000000
  eps_taylor     :   0.10000E-15                  max_taylor     :             4
  ----------------------------------- OT ---------------------------------------

  Step     Update method      Time    Convergence         Total energy    Change
  ------------------------------------------------------------------------------
     1 OT DIIS     0.15E+00    8.5     0.04322773     -4273.6630155251 -3.15E+01
     2 OT DIIS     0.15E+00    2.1     0.10395822     -3981.9073372932  2.92E+02
     3 OT DIIS     0.15E+00    2.1     0.27784923     -3765.2671934982  2.17E+02
     4 OT DIIS     0.15E+00    2.1     0.06410815     -4164.2647703878 -3.99E+02
     5 OT DIIS     0.15E+00    2.1     0.14436996     -4126.2666895356  3.80E+01
     6 OT DIIS     0.15E+00    2.1     0.04429552     -4259.8257453950 -1.34E+02
     7 OT DIIS     0.15E+00    1.9     0.08991114     -4248.2721152112  1.16E+01
     8 OT DIIS     0.15E+00    1.8     0.03288333     -4311.8697459728 -6.36E+01
     9 OT DIIS     0.15E+00    2.1     0.09310706     -4245.3011980740  6.66E+01
    10 OT DIIS     0.15E+00    1.9     0.06461362     -4304.1567664064 -5.89E+01
    11 OT DIIS     0.15E+00    1.8     0.03921253     -4327.8469859058 -2.37E+01
    12 OT DIIS     0.15E+00    2.1     0.04201117     -4336.8594335095 -9.01E+00
    13 OT DIIS     0.15E+00    2.2     0.03371698     -4329.9794184013  6.88E+00
    14 OT DIIS     0.15E+00    2.1     0.02577893     -4351.4558653233 -2.15E+01
    15 OT DIIS     0.15E+00    2.1     0.01854119     -4360.1582845533 -8.70E+00
    16 OT DIIS     0.15E+00    2.1     0.01748571     -4363.7355405305 -3.58E+00
    17 OT DIIS     0.15E+00    2.1     0.01231300     -4368.0517176313 -4.32E+00
    18 OT DIIS     0.15E+00    2.1     0.01424742     -4368.5089454541 -4.57E-01
    19 OT DIIS     0.15E+00    2.0     0.00988413     -4370.7279575438 -2.22E+00
    20 OT DIIS     0.15E+00    1.9     0.00848175     -4372.1301891121 -1.40E+00
    21 OT DIIS     0.15E+00    2.1     0.00466947     -4373.6107382993 -1.48E+00
    22 OT DIIS     0.15E+00    2.0     0.00634544     -4373.8986412712 -2.88E-01
    23 OT DIIS     0.15E+00    2.1     0.00302016     -4374.9172081444 -1.02E+00
    24 OT DIIS     0.15E+00    2.1     0.00305120     -4375.4180629118 -5.01E-01
    25 OT DIIS     0.15E+00    2.1     0.00265691     -4375.8658665542 -4.48E-01
    26 OT DIIS     0.15E+00    1.9     0.00262364     -4376.3616840727 -4.96E-01
    27 OT DIIS     0.15E+00    2.1     0.00336689     -4376.6374448093 -2.76E-01
    28 OT DIIS     0.15E+00    2.1     0.00261788     -4376.9965740242 -3.59E-01
    29 OT DIIS     0.15E+00    2.0     0.00288230     -4377.0830878959 -8.65E-02
    30 OT DIIS     0.15E+00    1.9     0.00245508     -4377.6242005295 -5.41E-01
    31 OT DIIS     0.15E+00    1.8     0.00234409     -4377.5795986031  4.46E-02
    32 OT DIIS     0.15E+00    1.8     0.00201484     -4377.9102298210 -3.31E-01
    33 OT DIIS     0.15E+00    1.8     0.00186463     -4378.0736621314 -1.63E-01
    34 OT DIIS     0.15E+00    2.0     0.00165276     -4378.2605640493 -1.87E-01
    35 OT DIIS     0.15E+00    2.1     0.00184072     -4378.5534974094 -2.93E-01
    36 OT DIIS     0.15E+00    2.1     0.00169217     -4378.5707583043 -1.73E-02
    37 OT DIIS     0.15E+00    2.0     0.00179458     -4378.8041435620 -2.33E-01
    38 OT DIIS     0.15E+00    2.0     0.00158503     -4378.9921107491 -1.88E-01
    39 OT DIIS     0.15E+00    2.1     0.00184884     -4379.0786419122 -8.65E-02
    40 OT DIIS     0.15E+00    2.0     0.00154967     -4379.2317424025 -1.53E-01
    41 OT DIIS     0.15E+00    2.0     0.00155188     -4379.3443728547 -1.13E-01
    42 OT DIIS     0.15E+00    1.8     0.00137988     -4379.4267811778 -8.24E-02
    43 OT DIIS     0.15E+00    1.8     0.00131518     -4379.6169747058 -1.90E-01
    44 OT DIIS     0.15E+00    2.1     0.00138345     -4379.6463558112 -2.94E-02
    45 OT DIIS     0.15E+00    1.9     0.00131335     -4379.7866552613 -1.40E-01
    46 OT DIIS     0.15E+00    2.0     0.00117853     -4379.8905998903 -1.04E-01
    47 OT DIIS     0.15E+00    2.0     0.00134983     -4380.0215084785 -1.31E-01
    48 OT DIIS     0.15E+00    2.1     0.00123445     -4380.1007584995 -7.93E-02
    49 OT DIIS     0.15E+00    2.0     0.00127884     -4380.1988049124 -9.80E-02
    50 OT DIIS     0.15E+00    2.0     0.00121546     -4380.2441633995 -4.54E-02

  Leaving inner SCF loop after reaching    50 steps.


  Electronic density on regular grids:      -1484.0000000037       -0.0000000037
  Core density on regular grids:             1483.9999999310       -0.0000000690
  Total charge density on r-space grids:       -0.0000000727
  Total charge density g-space grids:          -0.0000000727

  Overlap energy of the core charge distribution:               2.68451751121079
  Self energy of the core charge distribution:             -10331.29031661960289
  Core Hamiltonian energy:                                   2881.29474986975993
  Hartree energy:                                            3879.31519155860906
  Exchange-correlation energy:                               -811.49266728588861
  Dispersion energy:                                           -0.75563843354115

  Total energy:                                             -4380.24416339945401

  outer SCF iter =    2 RMS gradient =   0.12E-02 energy =      -4380.2441633995

  ----------------------------------- OT ---------------------------------------
  Minimizer      : DIIS                : direct inversion
                                         in the iterative subspace
                                         using   7 DIIS vectors
                                         safer DIIS on
  Preconditioner : FULL_SINGLE         : diagonalization based
  Precond_solver : DEFAULT
  stepsize       :    0.15000000                  energy_gap     :    0.20000000
  eps_taylor     :   0.10000E-15                  max_taylor     :             4
  ----------------------------------- OT ---------------------------------------

  Step     Update method      Time    Convergence         Total energy    Change
  ------------------------------------------------------------------------------
     1 OT DIIS     0.15E+00    8.5     0.00438869     -4380.3810059610 -1.37E-01
     2 OT DIIS     0.15E+00    2.1     0.00751018     -4381.6815938696 -1.30E+00
     3 OT DIIS     0.15E+00    1.9     0.00552350     -4383.1375870306 -1.46E+00
     4 OT DIIS     0.15E+00    2.0     0.00382531     -4384.0931462428 -9.56E-01
     5 OT DIIS     0.15E+00    2.1     0.00273001     -4384.5942747306 -5.01E-01
     6 OT DIIS     0.15E+00    2.1     0.00204328     -4384.9461512992 -3.52E-01
     7 OT DIIS     0.15E+00    2.1     0.00147741     -4385.1780634315 -2.32E-01
     8 OT DIIS     0.15E+00    1.9     0.00120783     -4385.3467339683 -1.69E-01
     9 OT DIIS     0.15E+00    2.1     0.00098181     -4385.4867942620 -1.40E-01
    10 OT DIIS     0.15E+00    2.0     0.00091767     -4385.5527553156 -6.60E-02
    11 OT DIIS     0.15E+00    2.1     0.00074681     -4385.6561497646 -1.03E-01
    12 OT DIIS     0.15E+00    1.9     0.00068780     -4385.7066467369 -5.05E-02
    13 OT DIIS     0.15E+00    2.1     0.00075940     -4385.7517268444 -4.51E-02
    14 OT DIIS     0.15E+00    2.1     0.00059431     -4385.7877073026 -3.60E-02
    15 OT DIIS     0.15E+00    1.8     0.00057905     -4385.8158517123 -2.81E-02
    16 OT DIIS     0.15E+00    2.1     0.00050651     -4385.8415482777 -2.57E-02
    17 OT DIIS     0.15E+00    2.1     0.00045652     -4385.8597511342 -1.82E-02
    18 OT DIIS     0.15E+00    2.1     0.00045276     -4385.8831133978 -2.34E-02
    19 OT DIIS     0.15E+00    1.8     0.00040166     -4385.8940713243 -1.10E-02
    20 OT DIIS     0.15E+00    2.1     0.00037654     -4385.9022355767 -8.16E-03
    21 OT DIIS     0.15E+00    1.8     0.00038278     -4385.9218619846 -1.96E-02
    22 OT DIIS     0.15E+00    2.0     0.00034624     -4385.9240460389 -2.18E-03
    23 OT DIIS     0.15E+00    2.0     0.00032235     -4385.9371458982 -1.31E-02
    24 OT DIIS     0.15E+00    2.0     0.00030344     -4385.9445737561 -7.43E-03
    25 OT DIIS     0.15E+00    1.9     0.00027990     -4385.9524721416 -7.90E-03
    26 OT DIIS     0.15E+00    2.0     0.00027321     -4385.9646829708 -1.22E-02
    27 OT DIIS     0.15E+00    2.1     0.00027125     -4385.9696761717 -4.99E-03
    28 OT DIIS     0.15E+00    2.0     0.00027016     -4385.9776546580 -7.98E-03
    29 OT DIIS     0.15E+00    1.8     0.00026082     -4385.9847090437 -7.05E-03
    30 OT DIIS     0.15E+00    2.1     0.00026901     -4385.9913225508 -6.61E-03
    31 OT DIIS     0.15E+00    2.0     0.00024627     -4385.9965821656 -5.26E-03
    32 OT DIIS     0.15E+00    2.0     0.00024121     -4386.0015863213 -5.00E-03
    33 OT DIIS     0.15E+00    2.0     0.00022177     -4386.0053392561 -3.75E-03
    34 OT DIIS     0.15E+00    2.0     0.00020524     -4386.0117707913 -6.43E-03
    35 OT DIIS     0.15E+00    2.0     0.00020507     -4386.0149135011 -3.14E-03
    36 OT DIIS     0.15E+00    2.0     0.00019687     -4386.0195753964 -4.66E-03
    37 OT DIIS     0.15E+00    2.2     0.00019448     -4386.0229827761 -3.41E-03
    38 OT DIIS     0.15E+00    1.8     0.00019263     -4386.0278010161 -4.82E-03
    39 OT DIIS     0.15E+00    2.1     0.00018737     -4386.0314881678 -3.69E-03
    40 OT DIIS     0.15E+00    2.0     0.00018841     -4386.0350072874 -3.52E-03
    41 OT DIIS     0.15E+00    1.8     0.00018463     -4386.0385386552 -3.53E-03
    42 OT DIIS     0.15E+00    2.0     0.00017288     -4386.0420331812 -3.49E-03
    43 OT DIIS     0.15E+00    1.9     0.00017403     -4386.0449399299 -2.91E-03
    44 OT DIIS     0.15E+00    2.0     0.00017052     -4386.0487841425 -3.84E-03
    45 OT DIIS     0.15E+00    1.8     0.00016400     -4386.0491287613 -3.45E-04
    46 OT DIIS     0.15E+00    2.1     0.00015696     -4386.0534828243 -4.35E-03
    47 OT DIIS     0.15E+00    2.1     0.00014962     -4386.0552584482 -1.78E-03
    48 OT DIIS     0.15E+00    2.1     0.00014936     -4386.0579526081 -2.69E-03
    49 OT DIIS     0.15E+00    1.9     0.00014657     -4386.0605190077 -2.57E-03
    50 OT DIIS     0.15E+00    1.8     0.00014094     -4386.0625906744 -2.07E-03

  Leaving inner SCF loop after reaching    50 steps.


  Electronic density on regular grids:      -1484.0000000031       -0.0000000031
  Core density on regular grids:             1483.9999999310       -0.0000000690
  Total charge density on r-space grids:       -0.0000000721
  Total charge density g-space grids:          -0.0000000721

  Overlap energy of the core charge distribution:               2.68451751121079
  Self energy of the core charge distribution:             -10331.29031661960289
  Core Hamiltonian energy:                                   2868.43005430612357
  Hartree energy:                                            3886.80482545830455
  Exchange-correlation energy:                               -811.93603289693579
  Dispersion energy:                                           -0.75563843354115

  Total energy:                                             -4386.06259067444171

  outer SCF iter =    3 RMS gradient =   0.14E-03 energy =      -4386.0625906744

  ----------------------------------- OT ---------------------------------------
  Minimizer      : DIIS                : direct inversion
                                         in the iterative subspace
                                         using   7 DIIS vectors
                                         safer DIIS on
  Preconditioner : FULL_SINGLE         : diagonalization based
  Precond_solver : DEFAULT
  stepsize       :    0.15000000                  energy_gap     :    0.20000000
  eps_taylor     :   0.10000E-15                  max_taylor     :             4
  ----------------------------------- OT ---------------------------------------

  Step     Update method      Time    Convergence         Total energy    Change
  ------------------------------------------------------------------------------
     1 OT DIIS     0.15E+00    8.2     0.00015496     -4386.0654008503 -2.81E-03
     2 OT DIIS     0.15E+00    1.8     0.00048562     -4386.0643564680  1.04E-03
     3 OT DIIS     0.15E+00    2.0     0.00013102     -4386.0718874575 -7.53E-03
     4 OT DIIS     0.15E+00    2.0     0.00012394     -4386.0738175075 -1.93E-03
     5 OT DIIS     0.15E+00    2.2     0.00015399     -4386.0818620281 -8.04E-03
     6 OT DIIS     0.15E+00    2.1     0.00012081     -4386.0940838046 -1.22E-02
     7 OT DIIS     0.15E+00    2.1     0.00010456     -4386.0996596549 -5.58E-03
     8 OT DIIS     0.15E+00    2.1     0.00011944     -4386.1085377333 -8.88E-03
     9 OT DIIS     0.15E+00    1.8     0.00009347     -4386.1146038452 -6.07E-03
    10 OT DIIS     0.15E+00    2.1     0.00009683     -4386.1175881634 -2.98E-03
    11 OT DIIS     0.15E+00    2.1     0.00010240     -4386.1239575598 -6.37E-03
    12 OT DIIS     0.15E+00    2.0     0.00008074     -4386.1264695705 -2.51E-03
    13 OT DIIS     0.15E+00    2.1     0.00007676     -4386.1284041963 -1.93E-03
    14 OT DIIS     0.15E+00    2.0     0.00007586     -4386.1315532965 -3.15E-03
    15 OT DIIS     0.15E+00    1.8     0.00006971     -4386.1337242579 -2.17E-03
    16 OT DIIS     0.15E+00    2.1     0.00006615     -4386.1353089348 -1.58E-03
    17 OT DIIS     0.15E+00    1.9     0.00006539     -4386.1384849884 -3.18E-03
    18 OT DIIS     0.15E+00    1.9     0.00005784     -4386.1403360739 -1.85E-03
    19 OT DIIS     0.15E+00    2.1     0.00006875     -4386.1426638281 -2.33E-03
    20 OT DIIS     0.15E+00    2.1     0.00006180     -4386.1426939121 -3.01E-05
    21 OT DIIS     0.15E+00    2.1     0.00006177     -4386.1445622950 -1.87E-03
    22 OT DIIS     0.15E+00    1.9     0.00005684     -4386.1456249964 -1.06E-03
    23 OT DIIS     0.15E+00    2.1     0.00006205     -4386.1485280438 -2.90E-03
    24 OT DIIS     0.15E+00    2.0     0.00005316     -4386.1497803393 -1.25E-03
    25 OT DIIS     0.15E+00    2.1     0.00007324     -4386.1500146179 -2.34E-04
    26 OT DIIS     0.15E+00    2.2     0.00006147     -4386.1501621604 -1.48E-04
    27 OT DIIS     0.15E+00    2.1     0.00005715     -4386.1519891168 -1.83E-03
    28 OT SD       0.15E+00    1.9     0.00005811     -4386.1529989481 -1.01E-03
    29 OT DIIS     0.15E+00    2.1     0.00023675     -4386.1518962594  1.10E-03
    30 OT DIIS     0.15E+00    1.9     0.00004186     -4386.1539389731 -2.04E-03
    31 OT SD       0.15E+00    1.8     0.00004453     -4386.1546440539 -7.05E-04
    32 OT DIIS     0.15E+00    1.8     0.00015703     -4386.1543844299  2.60E-04
    33 OT DIIS     0.15E+00    2.1     0.00005107     -4386.1571934312 -2.81E-03
    34 OT DIIS     0.15E+00    2.0     0.00004172     -4386.1587305701 -1.54E-03
    35 OT SD       0.15E+00    2.0     0.00003878     -4386.1592982005 -5.68E-04
    36 OT DIIS     0.15E+00    2.1     0.00013928     -4386.1590172529  2.81E-04
    37 OT DIIS     0.15E+00    2.1     0.00002974     -4386.1600592754 -1.04E-03
    38 OT DIIS     0.15E+00    1.8     0.00002942     -4386.1604506296 -3.91E-04
    39 OT DIIS     0.15E+00    2.1     0.00003014     -4386.1607382418 -2.88E-04
    40 OT DIIS     0.15E+00    1.9     0.00002955     -4386.1616617314 -9.23E-04
    41 OT DIIS     0.15E+00    2.0     0.00002820     -4386.1625815251 -9.20E-04
    42 OT DIIS     0.15E+00    1.8     0.00002889     -4386.1630230296 -4.42E-04
    43 OT DIIS     0.15E+00    2.1     0.00002758     -4386.1630544398 -3.14E-05
    44 OT DIIS     0.15E+00    2.1     0.00003844     -4386.1633649513 -3.11E-04
    45 OT DIIS     0.15E+00    2.1     0.00002484     -4386.1639391416 -5.74E-04
    46 OT DIIS     0.15E+00    2.1     0.00002605     -4386.1640146225 -7.55E-05
    47 OT DIIS     0.15E+00    2.1     0.00002381     -4386.1646174765 -6.03E-04
    48 OT SD       0.15E+00    1.9     0.00003086     -4386.1650288206 -4.11E-04
    49 OT DIIS     0.15E+00    2.0     0.00013495     -4386.1646742477  3.55E-04
    50 OT SD       0.15E+00    2.1     0.00002543     -4386.1658474829 -1.17E-03

  Leaving inner SCF loop after reaching    50 steps.


  Electronic density on regular grids:      -1484.0000000032       -0.0000000032
  Core density on regular grids:             1483.9999999310       -0.0000000690
  Total charge density on r-space grids:       -0.0000000722
  Total charge density g-space grids:          -0.0000000722

  Overlap energy of the core charge distribution:               2.68451751121079
  Self energy of the core charge distribution:             -10331.29031661960289
  Core Hamiltonian energy:                                   2868.33457148787784
  Hartree energy:                                            3886.84398497539405
  Exchange-correlation energy:                               -811.98296640425315
  Dispersion energy:                                           -0.75563843354115

  Total energy:                                             -4386.16584748291552

  outer SCF iter =    4 RMS gradient =   0.25E-04 energy =      -4386.1658474829

  ----------------------------------- OT ---------------------------------------
  Minimizer      : DIIS                : direct inversion
                                         in the iterative subspace
                                         using   7 DIIS vectors
                                         safer DIIS on
  Preconditioner : FULL_SINGLE         : diagonalization based
  Precond_solver : DEFAULT
  stepsize       :    0.15000000                  energy_gap     :    0.20000000
  eps_taylor     :   0.10000E-15                  max_taylor     :             4
  ----------------------------------- OT ---------------------------------------

  Step     Update method      Time    Convergence         Total energy    Change
  ------------------------------------------------------------------------------
     1 OT DIIS     0.15E+00    8.3     0.00008513     -4386.1657534556  9.40E-05
     2 OT DIIS     0.15E+00    2.0     0.00041794     -4386.1607624605  4.99E-03
     3 OT DIIS     0.15E+00    2.0     0.00005432     -4386.1660514104 -5.29E-03
     4 OT DIIS     0.15E+00    1.8     0.00002102     -4386.1661617017 -1.10E-04
     5 OT DIIS     0.15E+00    2.1     0.00001946     -4386.1662035400 -4.18E-05
     6 OT DIIS     0.15E+00    1.8     0.00002025     -4386.1663409861 -1.37E-04
     7 OT DIIS     0.15E+00    2.0     0.00002421     -4386.1669638516 -6.23E-04
     8 OT SD       0.15E+00    2.1     0.00001954     -4386.1677010497 -7.37E-04
     9 OT DIIS     0.15E+00    2.0     0.00005994     -4386.1676842850  1.68E-05
    10 OT DIIS     0.15E+00    2.0     0.00001805     -4386.1681213461 -4.37E-04
    11 OT DIIS     0.15E+00    2.0     0.00001634     -4386.1682533352 -1.32E-04
    12 OT DIIS     0.15E+00    2.0     0.00001602     -4386.1683054309 -5.21E-05
    13 OT DIIS     0.15E+00    1.8     0.00001527     -4386.1684611758 -1.56E-04
    14 OT DIIS     0.15E+00    2.1     0.00001496     -4386.1687170858 -2.56E-04
    15 OT DIIS     0.15E+00    2.0     0.00001421     -4386.1689252517 -2.08E-04
    16 OT DIIS     0.15E+00    2.2     0.00001454     -4386.1690298990 -1.05E-04
    17 OT DIIS     0.15E+00    2.2     0.00001616     -4386.1692908188 -2.61E-04
    18 OT DIIS     0.15E+00    1.9     0.00001423     -4386.1693660334 -7.52E-05
    19 OT DIIS     0.15E+00    2.1     0.00001648     -4386.1694242379 -5.82E-05
    20 OT DIIS     0.15E+00    2.1     0.00001605     -4386.1698425433 -4.18E-04
    21 OT SD       0.15E+00    1.8     0.00001522     -4386.1700797840 -2.37E-04
    22 OT DIIS     0.15E+00    2.1     0.00004161     -4386.1700882284 -8.44E-06
    23 OT DIIS     0.15E+00    2.1     0.00001373     -4386.1703018199 -2.14E-04
    24 OT DIIS     0.15E+00    2.0     0.00001439     -4386.1706160038 -3.14E-04
    25 OT DIIS     0.15E+00    2.1     0.00001405     -4386.1706636975 -4.77E-05
    26 OT DIIS     0.15E+00    2.1     0.00001392     -4386.1707591103 -9.54E-05
    27 OT SD       0.15E+00    2.0     0.00001695     -4386.1712195346 -4.60E-04
    28 OT DIIS     0.15E+00    2.0     0.00005996     -4386.1711610600  5.85E-05
    29 OT DIIS     0.15E+00    2.1     0.00001289     -4386.1713178327 -1.57E-04
    30 OT DIIS     0.15E+00    2.0     0.00001433     -4386.1714689944 -1.51E-04
    31 OT SD       0.15E+00    2.1     0.00001501     -4386.1716937009 -2.25E-04
    32 OT DIIS     0.15E+00    2.0     0.00004607     -4386.1716704191  2.33E-05
    33 OT DIIS     0.15E+00    2.1     0.00001562     -4386.1721320853 -4.62E-04
    34 OT SD       0.15E+00    2.1     0.00001766     -4386.1723389664 -2.07E-04
    35 OT DIIS     0.15E+00    2.1     0.00005688     -4386.1722683739  7.06E-05
    36 OT DIIS     0.15E+00    2.1     0.00001823     -4386.1723652211 -9.68E-05
    37 OT DIIS     0.15E+00    2.1     0.00001148     -4386.1724183026 -5.31E-05
    38 OT SD       0.15E+00    2.1     0.00001286     -4386.1726289165 -2.11E-04
    39 OT DIIS     0.15E+00    1.8     0.00003623     -4386.1726208299  8.09E-06
    40 OT DIIS     0.15E+00    1.8     0.00001109     -4386.1729380940 -3.17E-04
    41 OT SD       0.15E+00    2.0     0.00001582     -4386.1731209693 -1.83E-04
    42 OT DIIS     0.15E+00    2.0     0.00005712     -4386.1730480702  7.29E-05
    43 OT DIIS     0.15E+00    1.8     0.00001641     -4386.1732600545 -2.12E-04
    44 OT DIIS     0.15E+00    2.0     0.00001285     -4386.1732550631  4.99E-06
    45 OT SD       0.15E+00    2.1     0.00001227     -4386.1733691585 -1.14E-04
    46 OT DIIS     0.15E+00    2.1     0.00003910     -4386.1733473224  2.18E-05
    47 OT DIIS     0.15E+00    2.1     0.00000975     -4386.1734730386 -1.26E-04
    48 OT SD       0.15E+00    1.9     0.00000982     -4386.1735708473 -9.78E-05
    49 OT DIIS     0.15E+00    2.0     0.00002666     -4386.1735730302 -2.18E-06
    50 OT DIIS     0.15E+00    2.1     0.00001112     -4386.1737621406 -1.89E-04

  Leaving inner SCF loop after reaching    50 steps.


  Electronic density on regular grids:      -1484.0000000032       -0.0000000032
  Core density on regular grids:             1483.9999999310       -0.0000000690
  Total charge density on r-space grids:       -0.0000000722
  Total charge density g-space grids:          -0.0000000722

  Overlap energy of the core charge distribution:               2.68451751121079
  Self energy of the core charge distribution:             -10331.29031661960289
  Core Hamiltonian energy:                                   2868.29121967049696
  Hartree energy:                                            3886.87619706434270
  Exchange-correlation energy:                               -811.97974133349362
  Dispersion energy:                                           -0.75563843354115

  Total energy:                                             -4386.17376214058822

  outer SCF iter =    5 RMS gradient =   0.11E-04 energy =      -4386.1737621406

  ----------------------------------- OT ---------------------------------------
  Minimizer      : DIIS                : direct inversion
                                         in the iterative subspace
                                         using   7 DIIS vectors
                                         safer DIIS on
  Preconditioner : FULL_SINGLE         : diagonalization based
  Precond_solver : DEFAULT
  stepsize       :    0.15000000                  energy_gap     :    0.20000000
  eps_taylor     :   0.10000E-15                  max_taylor     :             4
  ----------------------------------- OT ---------------------------------------

  Step     Update method      Time    Convergence         Total energy    Change
  ------------------------------------------------------------------------------
     1 OT DIIS     0.15E+00    8.5     0.00001444     -4386.1739257734 -1.64E-04
     2 OT DIIS     0.15E+00    2.0     0.00005833     -4386.1738444504  8.13E-05
     3 OT DIIS     0.15E+00    1.9     0.00001193     -4386.1739521022 -1.08E-04
     4 OT DIIS     0.15E+00    1.9     0.00000760     -4386.1739597057 -7.60E-06
     5 OT DIIS     0.15E+00    1.9     0.00000755     -4386.1739683200 -8.61E-06
     6 OT DIIS     0.15E+00    2.0     0.00000753     -4386.1739892040 -2.09E-05
     7 OT DIIS     0.15E+00    2.0     0.00000749     -4386.1740315530 -4.23E-05
     8 OT DIIS     0.15E+00    2.0     0.00000745     -4386.1740954498 -6.39E-05
     9 OT DIIS     0.15E+00    2.0     0.00000808     -4386.1741491761 -5.37E-05
    10 OT DIIS     0.15E+00    1.8     0.00000725     -4386.1742577847 -1.09E-04
    11 OT DIIS     0.15E+00    1.8     0.00000686     -4386.1743295406 -7.18E-05
    12 OT DIIS     0.15E+00    2.0     0.00000789     -4386.1743301998 -6.59E-07
    13 OT DIIS     0.15E+00    2.0     0.00000702     -4386.1744023969 -7.22E-05
    14 OT DIIS     0.15E+00    2.0     0.00000670     -4386.1744384543 -3.61E-05
    15 OT DIIS     0.15E+00    2.1     0.00000663     -4386.1744522548 -1.38E-05
    16 OT DIIS     0.15E+00    2.1     0.00000654     -4386.1744811341 -2.89E-05
    17 OT SD       0.15E+00    2.0     0.00000647     -4386.1745261524 -4.50E-05
    18 OT DIIS     0.15E+00    1.9     0.00001332     -4386.1745352288 -9.08E-06
    19 OT SD       0.15E+00    2.0     0.00000663     -4386.1746127485 -7.75E-05
    20 OT DIIS     0.15E+00    2.0     0.00001645     -4386.1746186931 -5.94E-06
    21 OT SD       0.15E+00    2.0     0.00000660     -4386.1747491224 -1.30E-04
    22 OT DIIS     0.15E+00    2.1     0.00001366     -4386.1747561863 -7.06E-06
    23 OT DIIS     0.15E+00    2.0     0.00000639     -4386.1747679131 -1.17E-05
    24 OT DIIS     0.15E+00    2.1     0.00000664     -4386.1748775720 -1.10E-04
    25 OT DIIS     0.15E+00    1.8     0.00000599     -4386.1748840257 -6.45E-06
    26 OT DIIS     0.15E+00    2.1     0.00000643     -4386.1749243671 -4.03E-05
    27 OT DIIS     0.15E+00    2.2     0.00000596     -4386.1749410508 -1.67E-05
    28 OT SD       0.15E+00    2.1     0.00000790     -4386.1750913166 -1.50E-04
    29 OT DIIS     0.15E+00    2.1     0.00002515     -4386.1750831949  8.12E-06
    30 OT DIIS     0.15E+00    2.1     0.00000749     -4386.1750986616 -1.55E-05
    31 OT DIIS     0.15E+00    1.8     0.00000630     -4386.1751692369 -7.06E-05
    32 OT SD       0.15E+00    2.0     0.00000601     -4386.1751811674 -1.19E-05
    33 OT DIIS     0.15E+00    2.1     0.00001530     -4386.1751856465 -4.48E-06
    34 OT DIIS     0.15E+00    2.0     0.00000629     -4386.1752996072 -1.14E-04
    35 OT SD       0.15E+00    2.1     0.00000721     -4386.1753873453 -8.77E-05
    36 OT DIIS     0.15E+00    2.1     0.00002163     -4386.1753829435  4.40E-06
    37 OT DIIS     0.15E+00    1.9     0.00000584     -4386.1753746284  8.32E-06
    38 OT DIIS     0.15E+00    2.1     0.00000668     -4386.1754743800 -9.98E-05
    39 OT SD       0.15E+00    2.1     0.00000793     -4386.1755625970 -8.82E-05
    40 OT DIIS     0.15E+00    2.0     0.00002472     -4386.1755520480  1.05E-05
    41 OT DIIS     0.15E+00    2.0     0.00000535     -4386.1755954169 -4.34E-05
    42 OT SD       0.15E+00    2.0     0.00000622     -4386.1756589214 -6.35E-05
    43 OT DIIS     0.15E+00    1.9     0.00001966     -4386.1756568698  2.05E-06
    44 OT DIIS     0.15E+00    2.1     0.00000541     -4386.1756986567 -4.18E-05
    45 OT DIIS     0.15E+00    1.9     0.00000678     -4386.1758123105 -1.14E-04
    46 OT SD       0.15E+00    2.1     0.00000992     -4386.1759116031 -9.93E-05
    47 OT SD       0.15E+00    2.1     0.00003155     -4386.1758850276  2.66E-05
    48 OT DIIS     0.15E+00    2.0     0.00013026     -4386.1753347692  5.50E-04
    49 OT SD       0.15E+00    2.0     0.00000538     -4386.1759407467 -6.06E-04
    50 OT DIIS     0.15E+00    2.1     0.00001591     -4386.1759417930 -1.05E-06

  Leaving inner SCF loop after reaching    50 steps.


  Electronic density on regular grids:      -1484.0000000033       -0.0000000033
  Core density on regular grids:             1483.9999999310       -0.0000000690
  Total charge density on r-space grids:       -0.0000000723
  Total charge density g-space grids:          -0.0000000723

  Overlap energy of the core charge distribution:               2.68451751121079
  Self energy of the core charge distribution:             -10331.29031661960289
  Core Hamiltonian energy:                                   2868.29360845049541
  Hartree energy:                                            3886.87284582068423
  Exchange-correlation energy:                               -811.98095852226254
  Dispersion energy:                                           -0.75563843354115

  Total energy:                                             -4386.17594179301705

  outer SCF iter =    6 RMS gradient =   0.16E-04 energy =      -4386.1759417930

  ----------------------------------- OT ---------------------------------------
  Minimizer      : DIIS                : direct inversion
                                         in the iterative subspace
                                         using   7 DIIS vectors
                                         safer DIIS on
  Preconditioner : FULL_SINGLE         : diagonalization based
  Precond_solver : DEFAULT
  stepsize       :    0.15000000                  energy_gap     :    0.20000000
  eps_taylor     :   0.10000E-15                  max_taylor     :             4
  ----------------------------------- OT ---------------------------------------

  Step     Update method      Time    Convergence         Total energy    Change
  ------------------------------------------------------------------------------
     1 OT DIIS     0.15E+00    8.6     0.00000496     -4386.1759724185 -3.06E-05
     2 OT DIIS     0.15E+00    2.0     0.00001059     -4386.1759770545 -4.64E-06
     3 OT DIIS     0.15E+00    2.1     0.00000488     -4386.1759812717 -4.22E-06
     4 OT DIIS     0.15E+00    2.0     0.00000446     -4386.1759832486 -1.98E-06
     5 OT DIIS     0.15E+00    2.1     0.00000453     -4386.1759896763 -6.43E-06
     6 OT DIIS     0.15E+00    2.0     0.00000459     -4386.1760107776 -2.11E-05
     7 OT DIIS     0.15E+00    1.8     0.00000458     -4386.1760555685 -4.48E-05
     8 OT DIIS     0.15E+00    2.0     0.00000429     -4386.1760856369 -3.01E-05
     9 OT DIIS     0.15E+00    2.0     0.00000468     -4386.1760997077 -1.41E-05
    10 OT DIIS     0.15E+00    1.8     0.00000442     -4386.1761363324 -3.66E-05
    11 OT DIIS     0.15E+00    2.1     0.00000424     -4386.1761598956 -2.36E-05
    12 OT DIIS     0.15E+00    1.8     0.00000413     -4386.1761868599 -2.70E-05
    13 OT DIIS     0.15E+00    2.1     0.00000429     -4386.1762182589 -3.14E-05
    14 OT DIIS     0.15E+00    2.1     0.00000410     -4386.1762399973 -2.17E-05
    15 OT DIIS     0.15E+00    2.1     0.00000429     -4386.1762617988 -2.18E-05
    16 OT DIIS     0.15E+00    1.8     0.00000419     -4386.1763055248 -4.37E-05
    17 OT SD       0.15E+00    2.1     0.00000432     -4386.1763415355 -3.60E-05
    18 OT DIIS     0.15E+00    2.0     0.00000930     -4386.1763449710 -3.44E-06
    19 OT DIIS     0.15E+00    2.0     0.00000442     -4386.1763481802 -3.21E-06
    20 OT DIIS     0.15E+00    2.0     0.00000405     -4386.1763734213 -2.52E-05
    21 OT DIIS     0.15E+00    1.8     0.00000453     -4386.1763950199 -2.16E-05
    22 OT DIIS     0.15E+00    2.0     0.00000404     -4386.1764156074 -2.06E-05
    23 OT DIIS     0.15E+00    2.0     0.00000473     -4386.1764615109 -4.59E-05
    24 OT SD       0.15E+00    2.1     0.00000576     -4386.1765090113 -4.75E-05
    25 OT DIIS     0.15E+00    2.0     0.00002429     -4386.1764973319  1.17E-05
    26 OT DIIS     0.15E+00    2.0     0.00000457     -4386.1765369265 -3.96E-05
    27 OT DIIS     0.15E+00    2.0     0.00000751     -4386.1766215544 -8.46E-05
    28 OT SD       0.15E+00    1.8     0.00000646     -4386.1766454067 -2.39E-05
    29 OT SD       0.15E+00    2.0     0.00002402     -4386.1766320559  1.34E-05
    30 OT DIIS     0.15E+00    1.8     0.00012462     -4386.1761994065  4.33E-04
    31 OT SD       0.15E+00    2.0     0.00000367     -4386.1766638285 -4.64E-04
    32 OT DIIS     0.15E+00    2.0     0.00000982     -4386.1766648607 -1.03E-06
    33 OT DIIS     0.15E+00    2.0     0.00000340     -4386.1766726280 -7.77E-06
    34 OT SD       0.15E+00    2.0     0.00000338     -4386.1766966711 -2.40E-05
    35 OT DIIS     0.15E+00    2.1     0.00000936     -4386.1766977029 -1.03E-06
    36 OT DIIS     0.15E+00    2.2     0.00000327     -4386.1767272007 -2.95E-05
    37 OT DIIS     0.15E+00    2.1     0.00000356     -4386.1767754769 -4.83E-05
    38 OT SD       0.15E+00    2.2     0.00000313     -4386.1767872863 -1.18E-05
    39 OT DIIS     0.15E+00    2.0     0.00000815     -4386.1767879116 -6.25E-07
    40 OT DIIS     0.15E+00    2.0     0.00000407     -4386.1768462238 -5.83E-05
    41 OT DIIS     0.15E+00    1.8     0.00000383     -4386.1768597795 -1.36E-05
    42 OT DIIS     0.15E+00    2.0     0.00000309     -4386.1768772086 -1.74E-05
    43 OT DIIS     0.15E+00    2.0     0.00000367     -4386.1769019985 -2.48E-05
    44 OT DIIS     0.15E+00    2.1     0.00000330     -4386.1769124133 -1.04E-05
    45 OT DIIS     0.15E+00    2.1     0.00000283     -4386.1769212650 -8.85E-06
    46 OT DIIS     0.15E+00    1.9     0.00000286     -4386.1769373159 -1.61E-05
    47 OT SD       0.15E+00    2.1     0.00000369     -4386.1769534061 -1.61E-05
    48 OT DIIS     0.15E+00    2.1     0.00001290     -4386.1769498533  3.55E-06
    49 OT DIIS     0.15E+00    2.1     0.00000264     -4386.1769524363 -2.58E-06
    50 OT DIIS     0.15E+00    2.1     0.00000224     -4386.1769542679 -1.83E-06

  Leaving inner SCF loop after reaching    50 steps.


  Electronic density on regular grids:      -1484.0000000031       -0.0000000031
  Core density on regular grids:             1483.9999999310       -0.0000000690
  Total charge density on r-space grids:       -0.0000000721
  Total charge density g-space grids:          -0.0000000721

  Overlap energy of the core charge distribution:               2.68451751121079
  Self energy of the core charge distribution:             -10331.29031661960289
  Core Hamiltonian energy:                                   2868.28726160714996
  Hartree energy:                                            3886.87856287238719
  Exchange-correlation energy:                               -811.98134120549491
  Dispersion energy:                                           -0.75563843354115

  Total energy:                                             -4386.17695426789123

  outer SCF iter =    7 RMS gradient =   0.22E-05 energy =      -4386.1769542679

  ----------------------------------- OT ---------------------------------------
  Minimizer      : DIIS                : direct inversion
                                         in the iterative subspace
                                         using   7 DIIS vectors
                                         safer DIIS on
  Preconditioner : FULL_SINGLE         : diagonalization based
  Precond_solver : DEFAULT
  stepsize       :    0.15000000                  energy_gap     :    0.20000000
  eps_taylor     :   0.10000E-15                  max_taylor     :             4
  ----------------------------------- OT ---------------------------------------

  Step     Update method      Time    Convergence         Total energy    Change
  ------------------------------------------------------------------------------
     1 OT DIIS     0.15E+00    8.3     0.00000254     -4386.1769604817 -6.21E-06
     2 OT DIIS     0.15E+00    2.0     0.00000841     -4386.1769599768  5.05E-07
     3 OT DIIS     0.15E+00    2.1     0.00000239     -4386.1769621148 -2.14E-06
     4 OT DIIS     0.15E+00    1.8     0.00000193     -4386.1769625545 -4.40E-07
     5 OT DIIS     0.15E+00    1.9     0.00000201     -4386.1769634527 -8.98E-07
     6 OT DIIS     0.15E+00    2.0     0.00000222     -4386.1769690619 -5.61E-06
     7 OT DIIS     0.15E+00    2.1     0.00000190     -4386.1769745553 -5.49E-06
     8 OT DIIS     0.15E+00    2.0     0.00000178     -4386.1769782802 -3.72E-06
     9 OT DIIS     0.15E+00    2.0     0.00000185     -4386.1769804072 -2.13E-06
    10 OT DIIS     0.15E+00    2.0     0.00000166     -4386.1769832942 -2.89E-06
    11 OT DIIS     0.15E+00    1.8     0.00000166     -4386.1769856057 -2.31E-06
    12 OT DIIS     0.15E+00    2.0     0.00000168     -4386.1769889669 -3.36E-06
    13 OT DIIS     0.15E+00    2.1     0.00000160     -4386.1769926069 -3.64E-06
    14 OT DIIS     0.15E+00    2.1     0.00000156     -4386.1769948537 -2.25E-06
    15 OT DIIS     0.15E+00    2.1     0.00000159     -4386.1769971219 -2.27E-06
    16 OT DIIS     0.15E+00    2.1     0.00000157     -4386.1769988350 -1.71E-06
    17 OT DIIS     0.15E+00    2.1     0.00000152     -4386.1770009990 -2.16E-06
    18 OT DIIS     0.15E+00    2.1     0.00000152     -4386.1770051062 -4.11E-06
    19 OT DIIS     0.15E+00    2.0     0.00000149     -4386.1770087646 -3.66E-06
    20 OT DIIS     0.15E+00    2.0     0.00000148     -4386.1770133199 -4.56E-06
    21 OT DIIS     0.15E+00    1.8     0.00000148     -4386.1770171666 -3.85E-06
    22 OT DIIS     0.15E+00    2.0     0.00000146     -4386.1770205281 -3.36E-06
    23 OT DIIS     0.15E+00    2.0     0.00000151     -4386.1770253313 -4.80E-06
    24 OT DIIS     0.15E+00    2.0     0.00000145     -4386.1770310895 -5.76E-06
    25 OT DIIS     0.15E+00    2.0     0.00000140     -4386.1770368434 -5.75E-06
    26 OT DIIS     0.15E+00    1.9     0.00000139     -4386.1770418101 -4.97E-06
    27 OT DIIS     0.15E+00    2.0     0.00000135     -4386.1770461609 -4.35E-06
    28 OT DIIS     0.15E+00    2.0     0.00000145     -4386.1770502391 -4.08E-06
    29 OT DIIS     0.15E+00    2.0     0.00000143     -4386.1770566666 -6.43E-06
    30 OT DIIS     0.15E+00    1.9     0.00000133     -4386.1770625330 -5.87E-06
    31 OT DIIS     0.15E+00    1.8     0.00000127     -4386.1770640408 -1.51E-06
    32 OT DIIS     0.15E+00    1.8     0.00000154     -4386.1770678048 -3.76E-06
    33 OT DIIS     0.15E+00    2.0     0.00000142     -4386.1770710413 -3.24E-06
    34 OT DIIS     0.15E+00    2.0     0.00000138     -4386.1770744804 -3.44E-06
    35 OT DIIS     0.15E+00    1.9     0.00000136     -4386.1770771225 -2.64E-06
    36 OT DIIS     0.15E+00    2.0     0.00000152     -4386.1770842879 -7.17E-06
    37 OT SD       0.15E+00    2.0     0.00000155     -4386.1770858971 -1.61E-06
    38 OT DIIS     0.15E+00    2.1     0.00000557     -4386.1770854574  4.40E-07
    39 OT DIIS     0.15E+00    2.0     0.00000118     -4386.1770876319 -2.17E-06
    40 OT DIIS     0.15E+00    2.0     0.00000123     -4386.1770919304 -4.30E-06
    41 OT SD       0.15E+00    2.0     0.00000130     -4386.1770932476 -1.32E-06
    42 OT DIIS     0.15E+00    2.1     0.00000437     -4386.1770931316  1.16E-07
    43 OT DIIS     0.15E+00    2.0     0.00000129     -4386.1770979220 -4.79E-06
    44 OT SD       0.15E+00    2.2     0.00000156     -4386.1771046543 -6.73E-06
    45 OT DIIS     0.15E+00    2.1     0.00000502     -4386.1771042008  4.53E-07
    46 OT DIIS     0.15E+00    2.1     0.00000110     -4386.1771034036  7.97E-07
    47 OT DIIS     0.15E+00    2.0     0.00000109     -4386.1771065010 -3.10E-06
    48 OT SD       0.15E+00    2.0     0.00000118     -4386.1771071154 -6.14E-07
    49 OT DIIS     0.15E+00    2.1     0.00000404     -4386.1771069782  1.37E-07
    50 OT DIIS     0.15E+00    1.9     0.00000109     -4386.1771085511 -1.57E-06

  Leaving inner SCF loop after reaching    50 steps.


  Electronic density on regular grids:      -1484.0000000032       -0.0000000032
  Core density on regular grids:             1483.9999999310       -0.0000000690
  Total charge density on r-space grids:       -0.0000000722
  Total charge density g-space grids:          -0.0000000722

  Overlap energy of the core charge distribution:               2.68451751121079
  Self energy of the core charge distribution:             -10331.29031661960289
  Core Hamiltonian energy:                                   2868.28571351783785
  Hartree energy:                                            3886.88001039565461
  Exchange-correlation energy:                               -811.98139492265761
  Dispersion energy:                                           -0.75563843354115

  Total energy:                                             -4386.17710855109817

  outer SCF iter =    8 RMS gradient =   0.11E-05 energy =      -4386.1771085511

  ----------------------------------- OT ---------------------------------------
  Minimizer      : DIIS                : direct inversion
                                         in the iterative subspace
                                         using   7 DIIS vectors
                                         safer DIIS on
  Preconditioner : FULL_SINGLE         : diagonalization based
  Precond_solver : DEFAULT
  stepsize       :    0.15000000                  energy_gap     :    0.20000000
  eps_taylor     :   0.10000E-15                  max_taylor     :             4
  ----------------------------------- OT ---------------------------------------

  Step     Update method      Time    Convergence         Total energy    Change
  ------------------------------------------------------------------------------
     1 OT DIIS     0.15E+00    8.3     0.00000109     -4386.1771092492 -6.98E-07
     2 OT DIIS     0.15E+00    2.1     0.00000370     -4386.1771091581  9.11E-08
     3 OT DIIS     0.15E+00    2.0     0.00000096     -4386.1771095692 -4.11E-07

  *** SCF run converged in     3 steps ***


  Electronic density on regular grids:      -1484.0000000032       -0.0000000032
  Core density on regular grids:             1483.9999999310       -0.0000000690
  Total charge density on r-space grids:       -0.0000000722
  Total charge density g-space grids:          -0.0000000722

  Overlap energy of the core charge distribution:               2.68451751121079
  Self energy of the core charge distribution:             -10331.29031661960289
  Core Hamiltonian energy:                                   2868.28585911369737
  Hartree energy:                                            3886.87983524645597
  Exchange-correlation energy:                               -811.98136638744916
  Dispersion energy:                                           -0.75563843354115

  Total energy:                                             -4386.17710956922929

  outer SCF iter =    9 RMS gradient =   0.96E-06 energy =      -4386.1771095692
  outer SCF loop converged in   9 iterations or  403 steps


 ENERGY| Total FORCE_EVAL ( QS ) energy [a.u.]:            -4386.177109651984210

 --------  Informations at step =     0 ------------
  Optimization Method        =                 BFGS
  Total Energy               =     -4386.1771096520
  Used time                  =              860.440
 ---------------------------------------------------

 --------------------------
 OPTIMIZATION STEP:      1
 --------------------------

  Step is scaled; Scaling factor =  0.15250

 Number of electrons:                                                       1484
 Number of occupied orbitals:                                                742
 Number of molecular orbitals:                                               742

 Number of orbital functions:                                               3388
 Number of independent orbital functions:                                   3388

 Extrapolation method: ASPC


 SCF WAVEFUNCTION OPTIMIZATION

  ----------------------------------- OT ---------------------------------------
  Minimizer      : DIIS                : direct inversion
                                         in the iterative subspace
                                         using   7 DIIS vectors
                                         safer DIIS on
  Preconditioner : FULL_SINGLE         : diagonalization based
  Precond_solver : DEFAULT
  stepsize       :    0.15000000                  energy_gap     :    0.20000000
  eps_taylor     :   0.10000E-15                  max_taylor     :             4
  ----------------------------------- OT ---------------------------------------

  Step     Update method      Time    Convergence         Total energy    Change
  ------------------------------------------------------------------------------
     1 OT DIIS     0.15E+00    6.0     0.00674709     -4425.6927716992 -4.43E+03
     2 OT DIIS     0.15E+00    2.1     0.01649278     -4422.2113746959  3.48E+00
     3 OT DIIS     0.15E+00    2.3     0.00717863     -4429.4568008765 -7.25E+00
     4 OT DIIS     0.15E+00    2.3     0.00453179     -4430.9281777582 -1.47E+00
     5 OT DIIS     0.15E+00    2.2     0.00262650     -4431.5742142927 -6.46E-01
     6 OT DIIS     0.15E+00    2.3     0.00158655     -4431.7728117359 -1.99E-01
     7 OT DIIS     0.15E+00    2.3     0.00099090     -4431.8452506480 -7.24E-02
     8 OT DIIS     0.15E+00    2.2     0.00061109     -4431.8768284171 -3.16E-02
     9 OT DIIS     0.15E+00    2.2     0.00042979     -4431.8907033767 -1.39E-02
    10 OT DIIS     0.15E+00    1.9     0.00026704     -4431.8999051817 -9.20E-03
    11 OT DIIS     0.15E+00    2.1     0.00023049     -4431.9056114710 -5.71E-03
    12 OT DIIS     0.15E+00    2.2     0.00022065     -4431.9098819005 -4.27E-03
    13 OT DIIS     0.15E+00    2.3     0.00022924     -4431.9143672071 -4.49E-03
    14 OT DIIS     0.15E+00    2.2     0.00024168     -4431.9162439816 -1.88E-03
    15 OT DIIS     0.15E+00    2.0     0.00019640     -4431.9185955410 -2.35E-03
    16 OT DIIS     0.15E+00    2.3     0.00017883     -4431.9209616463 -2.37E-03
    17 OT DIIS     0.15E+00    2.0     0.00015857     -4431.9230235291 -2.06E-03
    18 OT DIIS     0.15E+00    2.0     0.00014554     -4431.9236867296 -6.63E-04
    19 OT DIIS     0.15E+00    2.1     0.00012252     -4431.9248973416 -1.21E-03
    20 OT DIIS     0.15E+00    1.9     0.00011152     -4431.9254192467 -5.22E-04
    21 OT DIIS     0.15E+00    2.2     0.00009837     -4431.9264087526 -9.90E-04
    22 OT DIIS     0.15E+00    2.3     0.00009586     -4431.9272347573 -8.26E-04
    23 OT DIIS     0.15E+00    2.2     0.00009029     -4431.9276802630 -4.46E-04
    24 OT DIIS     0.15E+00    2.2     0.00008202     -4431.9284015269 -7.21E-04
    25 OT DIIS     0.15E+00    2.1     0.00007990     -4431.9293214991 -9.20E-04
    26 OT DIIS     0.15E+00    2.2     0.00008687     -4431.9300093433 -6.88E-04
    27 OT DIIS     0.15E+00    1.9     0.00008019     -4431.9306702534 -6.61E-04
    28 OT DIIS     0.15E+00    2.0     0.00008901     -4431.9309463938 -2.76E-04
    29 OT DIIS     0.15E+00    2.1     0.00008122     -4431.9312903403 -3.44E-04
    30 OT DIIS     0.15E+00    2.1     0.00007397     -4431.9318446854 -5.54E-04
    31 OT DIIS     0.15E+00    2.2     0.00006941     -4431.9320216640 -1.77E-04
    32 OT DIIS     0.15E+00    2.2     0.00005810     -4431.9322586271 -2.37E-04
    33 OT DIIS     0.15E+00    2.0     0.00005151     -4431.9325842525 -3.26E-04
    34 OT DIIS     0.15E+00    2.2     0.00005001     -4431.9329679395 -3.84E-04
    35 OT DIIS     0.15E+00    2.2     0.00004954     -4431.9333012858 -3.33E-04
    36 OT DIIS     0.15E+00    2.2     0.00005445     -4431.9336386890 -3.37E-04
    37 OT DIIS     0.15E+00    2.1     0.00005737     -4431.9338264130 -1.88E-04
    38 OT DIIS     0.15E+00    2.2     0.00005645     -4431.9342357465 -4.09E-04
    39 OT DIIS     0.15E+00    2.1     0.00005788     -4431.9344997013 -2.64E-04
    40 OT DIIS     0.15E+00    2.1     0.00005352     -4431.9345975891 -9.79E-05
    41 OT DIIS     0.15E+00    2.1     0.00004787     -4431.9347406611 -1.43E-04
    42 OT DIIS     0.15E+00    2.2     0.00004264     -4431.9349865201 -2.46E-04
    43 OT DIIS     0.15E+00    2.1     0.00003897     -4431.9351335565 -1.47E-04
    44 OT DIIS     0.15E+00    2.1     0.00003851     -4431.9353331087 -2.00E-04
    45 OT DIIS     0.15E+00    2.1     0.00003876     -4431.9354320670 -9.90E-05
    46 OT DIIS     0.15E+00    2.2     0.00003749     -4431.9356413055 -2.09E-04
    47 OT DIIS     0.15E+00    2.0     0.00003901     -4431.9358881379 -2.47E-04
    48 OT DIIS     0.15E+00    2.1     0.00004133     -4431.9360344729 -1.46E-04
    49 OT DIIS     0.15E+00    1.9     0.00004031     -4431.9361606649 -1.26E-04
    50 OT DIIS     0.15E+00    1.9     0.00003956     -4431.9363652136 -2.05E-04

  Leaving inner SCF loop after reaching    50 steps.


  Electronic density on regular grids:      -1483.9999999801        0.0000000199
  Core density on regular grids:             1483.9999999309       -0.0000000691
  Total charge density on r-space grids:       -0.0000000492
  Total charge density g-space grids:          -0.0000000492

  Overlap energy of the core charge distribution:               0.08098592841788
  Self energy of the core charge distribution:             -10331.29031661960289
  Core Hamiltonian energy:                                   2798.52664310718728
  Hartree energy:                                            3905.65864635590242
  Exchange-correlation energy:                               -804.15918702190220
  Dispersion energy:                                           -0.75313696360456

  Total energy:                                             -4431.93636521360258

  outer SCF iter =    1 RMS gradient =   0.40E-04 energy =      -4431.9363652136

  ----------------------------------- OT ---------------------------------------
  Minimizer      : DIIS                : direct inversion
                                         in the iterative subspace
                                         using   7 DIIS vectors
                                         safer DIIS on
  Preconditioner : FULL_SINGLE         : diagonalization based
  Precond_solver : DEFAULT
  stepsize       :    0.15000000                  energy_gap     :    0.20000000
  eps_taylor     :   0.10000E-15                  max_taylor     :             4
  ----------------------------------- OT ---------------------------------------

  Step     Update method      Time    Convergence         Total energy    Change
  ------------------------------------------------------------------------------
     1 OT DIIS     0.15E+00    8.7     0.00003574     -4431.9364695106 -1.04E-04
     2 OT DIIS     0.15E+00    2.2     0.00009759     -4431.9364345246  3.50E-05
     3 OT DIIS     0.15E+00    2.0     0.00003136     -4431.9367945401 -3.60E-04
     4 OT DIIS     0.15E+00    2.2     0.00002637     -4431.9368767670 -8.22E-05
     5 OT DIIS     0.15E+00    2.1     0.00002847     -4431.9371750099 -2.98E-04
     6 OT DIIS     0.15E+00    2.1     0.00003371     -4431.9384992096 -1.32E-03
     7 OT DIIS     0.15E+00    2.1     0.00002401     -4431.9394596804 -9.60E-04
     8 OT DIIS     0.15E+00    2.1     0.00001752     -4431.9396971169 -2.37E-04
     9 OT DIIS     0.15E+00    2.2     0.00002000     -4431.9400296758 -3.33E-04
    10 OT DIIS     0.15E+00    2.1     0.00001650     -4431.9402025730 -1.73E-04
    11 OT DIIS     0.15E+00    2.0     0.00001610     -4431.9403229513 -1.20E-04
    12 OT DIIS     0.15E+00    2.3     0.00001546     -4431.9405011660 -1.78E-04
    13 OT DIIS     0.15E+00    2.1     0.00001422     -4431.9406808968 -1.80E-04
    14 OT DIIS     0.15E+00    2.2     0.00001319     -4431.9407795504 -9.87E-05
    15 OT DIIS     0.15E+00    2.3     0.00001368     -4431.9409335199 -1.54E-04
    16 OT DIIS     0.15E+00    2.0     0.00001253     -4431.9410702211 -1.37E-04
    17 OT DIIS     0.15E+00    2.2     0.00001297     -4431.9412267961 -1.57E-04
    18 OT DIIS     0.15E+00    1.9     0.00001257     -4431.9413337773 -1.07E-04
    19 OT DIIS     0.15E+00    2.0     0.00001158     -4431.9414397989 -1.06E-04
    20 OT DIIS     0.15E+00    2.1     0.00001112     -4431.9415234837 -8.37E-05
    21 OT DIIS     0.15E+00    2.2     0.00001086     -4431.9416225459 -9.91E-05
    22 OT DIIS     0.15E+00    2.3     0.00001147     -4431.9416798040 -5.73E-05
    23 OT DIIS     0.15E+00    2.1     0.00001081     -4431.9417326522 -5.28E-05
    24 OT DIIS     0.15E+00    2.2     0.00001012     -4431.9418430645 -1.10E-04
    25 OT DIIS     0.15E+00    2.2     0.00000962     -4431.9418901839 -4.71E-05
    26 OT DIIS     0.15E+00    1.9     0.00000969     -4431.9419539524 -6.38E-05
    27 OT DIIS     0.15E+00    2.0     0.00000990     -4431.9419933976 -3.94E-05
    28 OT DIIS     0.15E+00    2.2     0.00000900     -4431.9420354753 -4.21E-05
    29 OT DIIS     0.15E+00    2.1     0.00000930     -4431.9420978735 -6.24E-05
    30 OT DIIS     0.15E+00    2.1     0.00000895     -4431.9421762548 -7.84E-05
    31 OT DIIS     0.15E+00    2.0     0.00000824     -4431.9422207471 -4.45E-05
    32 OT DIIS     0.15E+00    2.1     0.00000828     -4431.9422703014 -4.96E-05
    33 OT DIIS     0.15E+00    2.0     0.00000786     -4431.9423116081 -4.13E-05
    34 OT DIIS     0.15E+00    2.1     0.00000820     -4431.9423526066 -4.10E-05
    35 OT DIIS     0.15E+00    1.9     0.00000857     -4431.9424179449 -6.53E-05
    36 OT DIIS     0.15E+00    2.2     0.00000782     -4431.9424579432 -4.00E-05
    37 OT DIIS     0.15E+00    1.9     0.00000711     -4431.9425079464 -5.00E-05
    38 OT DIIS     0.15E+00    2.1     0.00000701     -4431.9425464607 -3.85E-05
    39 OT DIIS     0.15E+00    2.1     0.00000713     -4431.9425825123 -3.61E-05
    40 OT DIIS     0.15E+00    2.1     0.00000708     -4431.9426139343 -3.14E-05
    41 OT DIIS     0.15E+00    2.2     0.00000719     -4431.9426630995 -4.92E-05
    42 OT DIIS     0.15E+00    2.2     0.00000777     -4431.9427056643 -4.26E-05
    43 OT DIIS     0.15E+00    2.2     0.00000633     -4431.9427256753 -2.00E-05
    44 OT DIIS     0.15E+00    2.1     0.00000629     -4431.9427606080 -3.49E-05
    45 OT DIIS     0.15E+00    2.1     0.00000641     -4431.9427756459 -1.50E-05
    46 OT DIIS     0.15E+00    2.3     0.00000605     -4431.9427987055 -2.31E-05
    47 OT DIIS     0.15E+00    2.0     0.00000646     -4431.9428321932 -3.35E-05
    48 OT DIIS     0.15E+00    2.2     0.00000621     -4431.9428592858 -2.71E-05
    49 OT DIIS     0.15E+00    2.1     0.00000580     -4431.9428829543 -2.37E-05
    50 OT DIIS     0.15E+00    2.1     0.00000787     -4431.9428992084 -1.63E-05

  Leaving inner SCF loop after reaching    50 steps.


  Electronic density on regular grids:      -1483.9999999802        0.0000000198
  Core density on regular grids:             1483.9999999309       -0.0000000691
  Total charge density on r-space grids:       -0.0000000493
  Total charge density g-space grids:          -0.0000000493

  Overlap energy of the core charge distribution:               0.08098592841788
  Self energy of the core charge distribution:             -10331.29031661960289
  Core Hamiltonian energy:                                   2798.43525281543134
  Hartree energy:                                            3905.73366517822751
  Exchange-correlation energy:                               -804.14934954730279
  Dispersion energy:                                           -0.75313696360456

  Total energy:                                             -4431.94289920843312

  outer SCF iter =    2 RMS gradient =   0.79E-05 energy =      -4431.9428992084

  ----------------------------------- OT ---------------------------------------
  Minimizer      : DIIS                : direct inversion
                                         in the iterative subspace
                                         using   7 DIIS vectors
                                         safer DIIS on
  Preconditioner : FULL_SINGLE         : diagonalization based
  Precond_solver : DEFAULT
  stepsize       :    0.15000000                  energy_gap     :    0.20000000
  eps_taylor     :   0.10000E-15                  max_taylor     :             4
  ----------------------------------- OT ---------------------------------------

  Step     Update method      Time    Convergence         Total energy    Change
  ------------------------------------------------------------------------------
     1 OT DIIS     0.15E+00    9.1     0.00000582     -4431.9429087834 -9.57E-06
     2 OT DIIS     0.15E+00    1.9     0.00001449     -4431.9429121184 -3.33E-06
     3 OT DIIS     0.15E+00    2.1     0.00000517     -4431.9429198315 -7.71E-06
     4 OT DIIS     0.15E+00    2.2     0.00000497     -4431.9429229719 -3.14E-06
     5 OT DIIS     0.15E+00    2.2     0.00000555     -4431.9429467949 -2.38E-05
     6 OT DIIS     0.15E+00    2.2     0.00000598     -4431.9430318211 -8.50E-05
     7 OT DIIS     0.15E+00    2.1     0.00000387     -4431.9430605788 -2.88E-05
     8 OT DIIS     0.15E+00    1.9     0.00000356     -4431.9430679065 -7.33E-06
     9 OT DIIS     0.15E+00    2.1     0.00000344     -4431.9430785456 -1.06E-05
    10 OT DIIS     0.15E+00    2.1     0.00000334     -4431.9430829421 -4.40E-06
    11 OT DIIS     0.15E+00    2.1     0.00000360     -4431.9430922518 -9.31E-06
    12 OT DIIS     0.15E+00    2.3     0.00000334     -4431.9431109905 -1.87E-05
    13 OT DIIS     0.15E+00    2.2     0.00000324     -4431.9431204543 -9.46E-06
    14 OT DIIS     0.15E+00    2.1     0.00000303     -4431.9431324614 -1.20E-05
    15 OT DIIS     0.15E+00    1.9     0.00000303     -4431.9431415151 -9.05E-06
    16 OT DIIS     0.15E+00    2.2     0.00000301     -4431.9431488436 -7.33E-06
    17 OT DIIS     0.15E+00    2.1     0.00000304     -4431.9431627650 -1.39E-05
    18 OT DIIS     0.15E+00    1.9     0.00000292     -4431.9431750796 -1.23E-05
    19 OT DIIS     0.15E+00    2.2     0.00000297     -4431.9431858278 -1.07E-05
    20 OT DIIS     0.15E+00    1.9     0.00000275     -4431.9431952237 -9.40E-06
    21 OT DIIS     0.15E+00    1.8     0.00000273     -4431.9432032555 -8.03E-06
    22 OT DIIS     0.15E+00    1.9     0.00000270     -4431.9432118285 -8.57E-06
    23 OT DIIS     0.15E+00    2.0     0.00000272     -4431.9432228761 -1.10E-05
    24 OT DIIS     0.15E+00    2.0     0.00000267     -4431.9432315511 -8.68E-06
    25 OT DIIS     0.15E+00    2.0     0.00000264     -4431.9432424146 -1.09E-05
    26 OT DIIS     0.15E+00    2.2     0.00000253     -4431.9432496162 -7.20E-06
    27 OT DIIS     0.15E+00    2.1     0.00000253     -4431.9432557435 -6.13E-06
    28 OT DIIS     0.15E+00    1.8     0.00000249     -4431.9432649671 -9.22E-06
    29 OT DIIS     0.15E+00    1.9     0.00000248     -4431.9432735524 -8.59E-06
    30 OT DIIS     0.15E+00    2.1     0.00000249     -4431.9432829172 -9.36E-06
    31 OT DIIS     0.15E+00    2.0     0.00000242     -4431.9432919384 -9.02E-06
    32 OT DIIS     0.15E+00    1.9     0.00000236     -4431.9432985142 -6.58E-06
    33 OT DIIS     0.15E+00    2.1     0.00000238     -4431.9433060440 -7.53E-06
    34 OT DIIS     0.15E+00    2.0     0.00000239     -4431.9433140770 -8.03E-06
    35 OT DIIS     0.15E+00    2.1     0.00000234     -4431.9433220807 -8.00E-06
    36 OT DIIS     0.15E+00    2.1     0.00000233     -4431.9433330609 -1.10E-05
    37 OT DIIS     0.15E+00    2.3     0.00000228     -4431.9433416944 -8.63E-06
    38 OT DIIS     0.15E+00    2.1     0.00000223     -4431.9433482375 -6.54E-06
    39 OT DIIS     0.15E+00    2.1     0.00000229     -4431.9433574821 -9.24E-06
    40 OT DIIS     0.15E+00    1.9     0.00000223     -4431.9433669231 -9.44E-06
    41 OT DIIS     0.15E+00    2.0     0.00000224     -4431.9433784428 -1.15E-05
    42 OT DIIS     0.15E+00    2.1     0.00000225     -4431.9433872461 -8.80E-06
    43 OT DIIS     0.15E+00    2.2     0.00000221     -4431.9433961350 -8.89E-06
    44 OT DIIS     0.15E+00    2.3     0.00000210     -4431.9434025445 -6.41E-06
    45 OT DIIS     0.15E+00    1.9     0.00000220     -4431.9434138254 -1.13E-05
    46 OT DIIS     0.15E+00    1.9     0.00000234     -4431.9434211822 -7.36E-06
    47 OT DIIS     0.15E+00    2.3     0.00000226     -4431.9434262061 -5.02E-06
    48 OT DIIS     0.15E+00    2.2     0.00000245     -4431.9434419227 -1.57E-05
    49 OT SD       0.15E+00    2.2     0.00000229     -4431.9434464872 -4.56E-06
    50 OT DIIS     0.15E+00    2.0     0.00000480     -4431.9434471745 -6.87E-07

  Leaving inner SCF loop after reaching    50 steps.


  Electronic density on regular grids:      -1483.9999999801        0.0000000199
  Core density on regular grids:             1483.9999999309       -0.0000000691
  Total charge density on r-space grids:       -0.0000000492
  Total charge density g-space grids:          -0.0000000492

  Overlap energy of the core charge distribution:               0.08098592841788
  Self energy of the core charge distribution:             -10331.29031661960289
  Core Hamiltonian energy:                                   2798.43706071108863
  Hartree energy:                                            3905.73056267162065
  Exchange-correlation energy:                               -804.14860290246907
  Dispersion energy:                                           -0.75313696360456

  Total energy:                                             -4431.94344717454896

  outer SCF iter =    3 RMS gradient =   0.48E-05 energy =      -4431.9434471745

  ----------------------------------- OT ---------------------------------------
  Minimizer      : DIIS                : direct inversion
                                         in the iterative subspace
                                         using   7 DIIS vectors
                                         safer DIIS on
  Preconditioner : FULL_SINGLE         : diagonalization based
  Precond_solver : DEFAULT
  stepsize       :    0.15000000                  energy_gap     :    0.20000000
  eps_taylor     :   0.10000E-15                  max_taylor     :             4
  ----------------------------------- OT ---------------------------------------

  Step     Update method      Time    Convergence         Total energy    Change
  ------------------------------------------------------------------------------
     1 OT DIIS     0.15E+00    8.8     0.00000203     -4431.9434551960 -8.02E-06
     2 OT DIIS     0.15E+00    2.2     0.00000386     -4431.9434561509 -9.55E-07
     3 OT DIIS     0.15E+00    2.2     0.00000191     -4431.9434567765 -6.26E-07
     4 OT DIIS     0.15E+00    2.1     0.00000189     -4431.9434572852 -5.09E-07
     5 OT DIIS     0.15E+00    2.2     0.00000211     -4431.9434618949 -4.61E-06
     6 OT DIIS     0.15E+00    2.1     0.00000177     -4431.9434679946 -6.10E-06
     7 OT DIIS     0.15E+00    2.1     0.00000181     -4431.9434711908 -3.20E-06
     8 OT DIIS     0.15E+00    2.2     0.00000176     -4431.9434774548 -6.26E-06
     9 OT DIIS     0.15E+00    2.2     0.00000164     -4431.9434790267 -1.57E-06
    10 OT DIIS     0.15E+00    2.0     0.00000174     -4431.9434839442 -4.92E-06
    11 OT DIIS     0.15E+00    1.9     0.00000167     -4431.9434868101 -2.87E-06
[...]
  Precond_solver : DEFAULT
  stepsize       :    0.15000000                  energy_gap     :    0.20000000
  eps_taylor     :   0.10000E-15                  max_taylor     :             4
  ----------------------------------- OT ---------------------------------------

  Step     Update method      Time    Convergence         Total energy    Change
  ------------------------------------------------------------------------------
     1 OT DIIS     0.15E+00   19.5     0.00000505     -4461.6893685915 -2.05E-06
     2 OT DIIS     0.15E+00    9.6     0.00002007     -4461.6893586762  9.92E-06
     3 OT DIIS     0.15E+00    3.9     0.00000292     -4461.6893722728 -1.36E-05
     4 OT DIIS     0.15E+00    3.4     0.00000266     -4461.6893729308 -6.58E-07
     5 OT SD       0.15E+00    3.6     0.00000265     -4461.6893734591 -5.28E-07
     6 OT SD       0.15E+00    3.4     0.00000265     -4461.6893761078 -2.65E-06
     7 OT SD       0.15E+00    3.6     0.00000268     -4461.6893787551 -2.65E-06
     8 OT SD       0.15E+00    4.6     0.00000296     -4461.6893813489 -2.59E-06
     9 OT SD       0.15E+00    4.4     0.00000567     -4461.6893831150 -1.77E-06
    10 OT SD       0.15E+00    4.8     0.00002030     -4461.6893716695  1.14E-05
    11 OT DIIS     0.15E+00    5.8     0.00008360     -4461.6891360159  2.36E-04
    12 OT DIIS     0.15E+00    3.4     0.00000288     -4461.6893189149 -1.83E-04
    13 OT DIIS     0.15E+00    5.1     0.00000273     -4461.6893244090 -5.49E-06
    14 OT DIIS     0.15E+00    2.6     0.00000271     -4461.6893303484 -5.94E-06
    15 OT SD       0.15E+00    5.1     0.00000268     -4461.6893685940 -3.82E-05
    16 OT SD       0.15E+00    5.6     0.00000296     -4461.6893711725 -2.58E-06
    17 OT SD       0.15E+00    6.3     0.00000587     -4461.6893728754 -1.70E-06
    18 OT DIIS     0.15E+00    3.6     0.00002246     -4461.6893589153  1.40E-05
    19 OT SD       0.15E+00    2.1     0.00000267     -4461.6893555678  3.35E-06
    20 OT SD       0.15E+00    2.1     0.00000301     -4461.6893581146 -2.55E-06
    21 OT SD       0.15E+00    4.9     0.00000612     -4461.6893596449 -1.53E-06
    22 OT DIIS     0.15E+00    5.3     0.00002197     -4461.6893454626  1.42E-05
    23 OT DIIS     0.15E+00    4.1     0.00000270     -4461.6893301224  1.53E-05
    24 OT SD       0.15E+00    3.3     0.00000264     -4461.6893552251 -2.51E-05
    25 OT SD       0.15E+00    4.4     0.00000276     -4461.6893578208 -2.60E-06
    26 OT SD       0.15E+00    3.9     0.00000433     -4461.6893600508 -2.23E-06
    27 OT SD       0.15E+00    4.7     0.00001556     -4461.6893550481  5.00E-06
    28 OT DIIS     0.15E+00    3.6     0.00007009     -4461.6892002575  1.55E-04
    29 OT SD       0.15E+00    5.4     0.00000265     -4461.6893418947 -1.42E-04
    30 OT SD       0.15E+00    3.4     0.00000298     -4461.6893444332 -2.54E-06
    31 OT SD       0.15E+00    5.6     0.00000649     -4461.6893458515 -1.42E-06
    32 OT DIIS     0.15E+00    4.9     0.00002585     -4461.6893264274  1.94E-05
    33 OT DIIS     0.15E+00    2.0     0.00000264     -4461.6893276340 -1.21E-06
    34 OT SD       0.15E+00    4.6     0.00000265     -4461.6893435350 -1.59E-05
    35 OT SD       0.15E+00    4.8     0.00000296     -4461.6893460609 -2.53E-06
    36 OT SD       0.15E+00    3.9     0.00000626     -4461.6893475534 -1.49E-06
    37 OT DIIS     0.15E+00    6.7     0.00002442     -4461.6893303891  1.72E-05
    38 OT SD       0.15E+00    3.3     0.00000263     -4461.6893450919 -1.47E-05
    39 OT SD       0.15E+00    4.9     0.00000275     -4461.6893476593 -2.57E-06
    40 OT DIIS     0.15E+00    4.5     0.00000445     -4461.6893498202 -2.16E-06
    41 OT SD       0.15E+00    5.1     0.00000265     -4461.6893596583 -9.84E-06
    42 OT DIIS     0.15E+00    5.2     0.00000319     -4461.6893621016 -2.44E-06
    43 OT DIIS     0.15E+00    3.2     0.00000266     -4461.6893693493 -7.25E-06
    44 OT DIIS     0.15E+00    3.9     0.00000264     -4461.6893760375 -6.69E-06
    45 OT DIIS     0.15E+00    4.7     0.00000262     -4461.6893788055 -2.77E-06
    46 OT DIIS     0.15E+00    4.4     0.00000263     -4461.6893795917 -7.86E-07
    47 OT DIIS     0.15E+00    3.2     0.00000261     -4461.6893828984 -3.31E-06
    48 OT DIIS     0.15E+00    3.4     0.00000260     -4461.6893856912 -2.79E-06
    49 OT DIIS     0.15E+00    4.4     0.00000260     -4461.6893858253 -1.34E-07
    50 OT SD       0.15E+00    3.0     0.00000260     -4461.6893865293 -7.04E-07

  Leaving inner SCF loop after reaching    50 steps.


  Electronic density on regular grids:      -1483.9999999605        0.0000000395
  Core density on regular grids:             1483.9999999310       -0.0000000690
  Total charge density on r-space grids:       -0.0000000295
  Total charge density g-space grids:          -0.0000000295

  Overlap energy of the core charge distribution:               0.00000519846653
  Self energy of the core charge distribution:             -10331.29031661960289
  Core Hamiltonian energy:                                   2681.56139002707187
  Hartree energy:                                            3975.36362327056213
  Exchange-correlation energy:                               -786.62393178627781
  Dispersion energy:                                           -0.70015661948301

  Total energy:                                             -4461.68938652926408

  outer SCF iter =    6 RMS gradient =   0.26E-05 energy =      -4461.6893865293

  ----------------------------------- OT ---------------------------------------
  Minimizer      : DIIS                : direct inversion
                                         in the iterative subspace
                                         using   7 DIIS vectors
                                         safer DIIS on
  Preconditioner : FULL_SINGLE         : diagonalization based
  Precond_solver : DEFAULT
  stepsize       :    0.15000000                  energy_gap     :    0.20000000
  eps_taylor     :   0.10000E-15                  max_taylor     :             4
  ----------------------------------- OT ---------------------------------------

  Step     Update method      Time    Convergence         Total energy    Change
  ------------------------------------------------------------------------------
     1 OT DIIS     0.15E+00   24.8     0.00000273     -4461.6893890424 -2.51E-06
     2 OT DIIS     0.15E+00    3.7     0.00000480     -4461.6893910728 -2.03E-06
     3 OT DIIS     0.15E+00    3.9     0.00000261     -4461.6893920539 -9.81E-07
     4 OT SD       0.15E+00    6.1     0.00000260     -4461.6893922550 -2.01E-07
     5 OT SD       0.15E+00    3.6     0.00000264     -4461.6893947983 -2.54E-06
     6 OT SD       0.15E+00    4.4     0.00000321     -4461.6893972347 -2.44E-06
     7 OT SD       0.15E+00    4.0     0.00000830     -4461.6893976960 -4.61E-07
     8 OT SD       0.15E+00    7.9     0.00003398     -4461.6893619158  3.58E-05
     9 OT DIIS     0.15E+00    3.4     0.00014901     -4461.6886345126  7.27E-04
    10 OT SD       0.15E+00    5.2     0.00000410     -4461.6892912144 -6.57E-04
    11 OT DIIS     0.15E+00    4.9     0.00000985     -4461.6892902127  1.00E-06
    12 OT DIIS     0.15E+00    2.9     0.00000328     -4461.6893076434 -1.74E-05
    13 OT SD       0.15E+00    4.0     0.00000275     -4461.6893487862 -4.11E-05
    14 OT SD       0.15E+00    4.1     0.00000425     -4461.6893508173 -2.03E-06
    15 OT SD       0.15E+00    3.8     0.00001387     -4461.6893468812  3.94E-06
    16 OT DIIS     0.15E+00    4.8     0.00005768     -4461.6892373978  1.09E-04
    17 OT SD       0.15E+00    4.7     0.00000258     -4461.6893280695 -9.07E-05
    18 OT SD       0.15E+00    4.9     0.00000342     -4461.6893302851 -2.22E-06
    19 OT SD       0.15E+00    3.4     0.00001091     -4461.6893290810  1.20E-06
    20 OT DIIS     0.15E+00    4.0     0.00004977     -4461.6892535818  7.55E-05
    21 OT DIIS     0.15E+00    2.3     0.00000269     -4461.6892937253 -4.01E-05
    22 OT SD       0.15E+00    6.1     0.00000253     -4461.6893263218 -3.26E-05
    23 OT SD       0.15E+00    7.5     0.00000273     -4461.6893286558 -2.33E-06
    24 OT SD       0.15E+00    3.4     0.00000491     -4461.6893304223 -1.77E-06
    25 OT DIIS     0.15E+00    3.7     0.00001806     -4461.6893220806  8.34E-06
    26 OT SD       0.15E+00    5.6     0.00000255     -4461.6893155563  6.52E-06
    27 OT SD       0.15E+00    3.7     0.00000316     -4461.6893177704 -2.21E-06
    28 OT SD       0.15E+00    3.2     0.00000820     -4461.6893179859 -2.16E-07
    29 OT SD       0.15E+00    5.5     0.00003222     -4461.6892847838  3.32E-05
    30 OT DIIS     0.15E+00    3.0     0.00013480     -4461.6886691539  6.16E-04
    31 OT DIIS     0.15E+00    3.6     0.00000250     -4461.6893171267 -6.48E-04
    32 OT SD       0.15E+00    2.8     0.00000250     -4461.6893191155 -1.99E-06
    33 OT SD       0.15E+00    6.1     0.00000253     -4461.6893214573 -2.34E-06
    34 OT SD       0.15E+00    4.2     0.00000308     -4461.6893236990 -2.24E-06
    35 OT SD       0.15E+00    3.7     0.00000844     -4461.6893239396 -2.41E-07
    36 OT DIIS     0.15E+00    3.7     0.00003679     -4461.6892829507  4.10E-05
    37 OT SD       0.15E+00    7.7     0.00000250     -4461.6893113491 -2.84E-05
    38 OT SD       0.15E+00    2.4     0.00000258     -4461.6893136742 -2.33E-06
    39 OT SD       0.15E+00    3.1     0.00000361     -4461.6893157758 -2.10E-06
    40 OT SD       0.15E+00    4.1     0.00001124     -4461.6893140654  1.71E-06
    41 OT DIIS     0.15E+00    6.6     0.00004803     -4461.6892408336  7.32E-05
    42 OT DIIS     0.15E+00    4.4     0.00000249     -4461.6893156723 -7.48E-05
    43 OT SD       0.15E+00    4.1     0.00000249     -4461.6893161091 -4.37E-07
    44 OT SD       0.15E+00    3.4     0.00000250     -4461.6893184494 -2.34E-06
    45 OT SD       0.15E+00    3.4     0.00000259     -4461.6893207758 -2.33E-06
    46 OT SD       0.15E+00    3.0     0.00000395     -4461.6893228127 -2.04E-06
    47 OT SD       0.15E+00    5.0     0.00001399     -4461.6893190208  3.79E-06
    48 OT DIIS     0.15E+00    3.0     0.00006297     -4461.6891943940  1.25E-04
    49 OT SD       0.15E+00    4.8     0.00000251     -4461.6893016382 -1.07E-04
    50 OT SD       0.15E+00    3.3     0.00000286     -4461.6893038940 -2.26E-06

  Leaving inner SCF loop after reaching    50 steps.


  Electronic density on regular grids:      -1483.9999999605        0.0000000395
  Core density on regular grids:             1483.9999999310       -0.0000000690
  Total charge density on r-space grids:       -0.0000000295
  Total charge density g-space grids:          -0.0000000295

  Overlap energy of the core charge distribution:               0.00000519846653
  Self energy of the core charge distribution:             -10331.29031661960289
  Core Hamiltonian energy:                                   2681.56147409717778
  Hartree energy:                                            3975.36374556922192
  Exchange-correlation energy:                               -786.62405551977804
  Dispersion energy:                                           -0.70015661948301

  Total energy:                                             -4461.68930389399793

  outer SCF iter =    7 RMS gradient =   0.29E-05 energy =      -4461.6893038940

  ----------------------------------- OT ---------------------------------------
  Minimizer      : DIIS                : direct inversion
                                         in the iterative subspace
                                         using   7 DIIS vectors
                                         safer DIIS on
  Preconditioner : FULL_SINGLE         : diagonalization based
  Precond_solver : DEFAULT
  stepsize       :    0.15000000                  energy_gap     :    0.20000000
  eps_taylor     :   0.10000E-15                  max_taylor     :             4
  ----------------------------------- OT ---------------------------------------

  Step     Update method      Time    Convergence         Total energy    Change
  ------------------------------------------------------------------------------
     1 OT DIIS     0.15E+00   24.5     0.00000666     -4461.6893049717 -1.08E-06
     2 OT DIIS     0.15E+00    2.6     0.00002825     -4461.6892818951  2.31E-05
     3 OT DIIS     0.15E+00    3.6     0.00000310     -4461.6893088923 -2.70E-05
     4 OT DIIS     0.15E+00    3.8     0.00000252     -4461.6893095693 -6.77E-07
     5 OT DIIS     0.15E+00    7.1     0.00000248     -4461.6893102484 -6.79E-07
     6 OT SD       0.15E+00    6.4     0.00000248     -4461.6893106657 -4.17E-07
     7 OT SD       0.15E+00    4.3     0.00000248     -4461.6893129915 -2.33E-06
     8 OT SD       0.15E+00    4.6     0.00000249     -4461.6893153173 -2.33E-06
     9 OT SD       0.15E+00    2.3     0.00000259     -4461.6893176269 -2.31E-06
    10 OT SD       0.15E+00    3.4     0.00000379     -4461.6893196706 -2.04E-06
    11 OT SD       0.15E+00    4.0     0.00001191     -4461.6893173327  2.34E-06
    12 OT DIIS     0.15E+00    5.4     0.00004914     -4461.6892381788  7.92E-05
    13 OT DIIS     0.15E+00    4.6     0.00000272     -4461.6892656588 -2.75E-05
    14 OT SD       0.15E+00    4.7     0.00000248     -4461.6892846930 -1.90E-05
    15 OT SD       0.15E+00    6.1     0.00000256     -4461.6892869831 -2.29E-06
    16 OT SD       0.15E+00    3.4     0.00000368     -4461.6892890314 -2.05E-06
    17 OT DIIS     0.15E+00    1.9     0.00001185     -4461.6892868141  2.22E-06
    18 OT DIIS     0.15E+00    2.4     0.00000248     -4461.6892892740 -2.46E-06
    19 OT DIIS     0.15E+00    2.9     0.00000248     -4461.6892934550 -4.18E-06
    20 OT SD       0.15E+00    2.9     0.00000250     -4461.6892944317 -9.77E-07
    21 OT DIIS     0.15E+00    5.0     0.00000302     -4461.6892966124 -2.18E-06
    22 OT SD       0.15E+00    4.8     0.00000247     -4461.6893001764 -3.56E-06
    23 OT SD       0.15E+00    6.7     0.00000253     -4461.6893024473 -2.27E-06
    24 OT SD       0.15E+00    3.3     0.00000349     -4461.6893045275 -2.08E-06
    25 OT SD       0.15E+00    3.1     0.00001107     -4461.6893029779  1.55E-06
    26 OT DIIS     0.15E+00    3.8     0.00004833     -4461.6892294317  7.35E-05
    27 OT SD       0.15E+00    4.2     0.00000247     -4461.6892821519 -5.27E-05
    28 OT SD       0.15E+00    4.1     0.00000262     -4461.6892843960 -2.24E-06
    29 OT SD       0.15E+00    2.9     0.00000462     -4461.6892861621 -1.77E-06
    30 OT SD       0.15E+00    8.5     0.00001768     -4461.6892784947  7.67E-06
    31 OT DIIS     0.15E+00    2.5     0.00008015     -4461.6890753208  2.03E-04
    32 OT DIIS     0.15E+00    3.3     0.00000246     -4461.6892877679 -2.12E-04
    33 OT DIIS     0.15E+00    3.9     0.00000245     -4461.6892888636 -1.10E-06
    34 OT SD       0.15E+00    3.5     0.00000245     -4461.6892889575 -9.39E-08
    35 OT SD       0.15E+00    3.7     0.00000246     -4461.6892912294 -2.27E-06
    36 OT SD       0.15E+00    3.6     0.00000251     -4461.6892934940 -2.26E-06
    37 OT SD       0.15E+00    5.4     0.00000332     -4461.6892956051 -2.11E-06
    38 OT SD       0.15E+00    6.3     0.00001032     -4461.6892946180  9.87E-07
    39 OT DIIS     0.15E+00    3.9     0.00004570     -4461.6892297906  6.48E-05
    40 OT SD       0.15E+00    4.9     0.00000247     -4461.6892760148 -4.62E-05
    41 OT SD       0.15E+00    5.0     0.00000261     -4461.6892782500 -2.24E-06
    42 OT SD       0.15E+00    2.8     0.00000428     -4461.6892800828 -1.83E-06
    43 OT SD       0.15E+00    4.6     0.00001477     -4461.6892751672  4.92E-06
    44 OT DIIS     0.15E+00    3.0     0.00006315     -4461.6891456221  1.30E-04
    45 OT DIIS     0.15E+00    5.1     0.00000245     -4461.6892825459 -1.37E-04
    46 OT DIIS     0.15E+00    3.2     0.00000245     -4461.6892842622 -1.72E-06
    47 OT SD       0.15E+00    3.9     0.00000245     -4461.6892859947 -1.73E-06
    48 OT SD       0.15E+00    4.3     0.00000246     -4461.6892882583 -2.26E-06
    49 OT SD       0.15E+00    3.4     0.00000261     -4461.6892904978 -2.24E-06
    50 OT SD       0.15E+00    2.5     0.00000487     -4461.6892922021 -1.70E-06

  Leaving inner SCF loop after reaching    50 steps.


  Electronic density on regular grids:      -1483.9999999600        0.0000000400
  Core density on regular grids:             1483.9999999310       -0.0000000690
  Total charge density on r-space grids:       -0.0000000290
  Total charge density g-space grids:          -0.0000000290

  Overlap energy of the core charge distribution:               0.00000519846653
  Self energy of the core charge distribution:             -10331.29031661960289
  Core Hamiltonian energy:                                   2681.56183956071754
  Hartree energy:                                            3975.36337843239380
  Exchange-correlation energy:                               -786.62404215463812
  Dispersion energy:                                           -0.70015661948301

  Total energy:                                             -4461.68929220214613

  outer SCF iter =    8 RMS gradient =   0.49E-05 energy =      -4461.6892922021

  ----------------------------------- OT ---------------------------------------
  Minimizer      : DIIS                : direct inversion
                                         in the iterative subspace
                                         using   7 DIIS vectors
                                         safer DIIS on
  Preconditioner : FULL_SINGLE         : diagonalization based
  Precond_solver : DEFAULT
  stepsize       :    0.15000000                  energy_gap     :    0.20000000
  eps_taylor     :   0.10000E-15                  max_taylor     :             4
  ----------------------------------- OT ---------------------------------------

  Step     Update method      Time    Convergence         Total energy    Change
  ------------------------------------------------------------------------------
     1 OT DIIS     0.15E+00   25.1     0.00001982     -4461.6892822160  9.99E-06
     2 OT DIIS     0.15E+00    5.6     0.00009225     -4461.6890156172  2.67E-04
     3 OT DIIS     0.15E+00    4.2     0.00000329     -4461.6892975461 -2.82E-04
     4 OT DIIS     0.15E+00    5.0     0.00000247     -4461.6892981829 -6.37E-07
     5 OT SD       0.15E+00    4.6     0.00000245     -4461.6892986246 -4.42E-07
     6 OT SD       0.15E+00    4.2     0.00000246     -4461.6893008962 -2.27E-06
     7 OT SD       0.15E+00    3.4     0.00000250     -4461.6893031633 -2.27E-06
     8 OT SD       0.15E+00    2.5     0.00000296     -4461.6893053424 -2.18E-06
[1701818872.847988] [ibc11b02n05:43106:0]        mm_xpmem.c:135  UCX  ERROR   failed to attach xpmem apid 0x80000a862 offset 0xd63f000 length 16384: Cannot allocate memory
[1701818872.848179] [ibc11b02n05:43106:0]        ucp_rkey.c:449  UCX  ERROR   failed to unpack remote key from remote md[7]: Input/output error
[1701818872.855827] [ibc11b02n05:43106:0]         pgtable.c:643  UCX  WARN    failed to remove pgtable region0x1c17adf0 [0x2ba2b9d2a818..0x2ba2b9d2a818]
[1701818874.552591] [ibc11b02n05:43106:0]          rcache.c:674  UCX  WARN    xpmem_remote_mem: destroying inuse region 0x1c17adf0 [0x2ba2b9d2a818..0x2ba2b9d2a818] g- rw ref 4294967295 apid 0x220000a862 attach_addr (nil) rmem 0x8405920
[1701818874.562206] [ibc11b02n05:43106:0]          rcache.c:674  UCX  WARN    xpmem_remote_mem: destroying inuse region 0x8526c60 [0x2ad48eca5000..0x2ad48eca8000] g- rw ref 1 apid 0x220000a862 attach_addr 0x2ba2cc31a000 rmem 0x8405920
[1701818874.565714] [ibc11b02n05:43106:0]           mpool.c:54   UCX  WARN    object 0x2ba3e56b2a88 was not returned to mpool rcache_mp
[1701818874.565815] [ibc11b02n05:43106:0]           mpool.c:54   UCX  WARN    object 0x2ba3e56b2cc8 was not returned to mpool rcache_mp
[1701818874.569157] [ibc11b02n05:43106:0]         pgtable.c:682  UCX  WARN    page table not empty during cleanup
