     196
 i =        1, E =     -4431.9436997441
  U         2.0100882608        5.0864253831       -2.7244881671
  U        -2.0622930865        5.6981726991       -3.2104619215
  U         2.5828851971        1.8033822008        5.3549837723
  U        -0.3387230624        0.8522857860       -6.0238092150
  U        -0.1369628493       -3.0261844549       -5.5171811123
  U        -1.7347454024       -5.2153896896        3.9496838636
  U        -1.3587412088       -6.8192423578       -0.9036800864
  U         6.5089555390        1.2812573762       -0.5438656603
  U        -3.7168241214        2.4457018839       -5.6850219552
  U         2.4373986342        5.5560585594        3.2540179321
  U        -1.5962453774        5.0443771020        3.4456654079
  U        -3.0644115411       -4.9348013299       -3.4969898084
  U         0.4283101924        0.4074835167        6.9002095529
  U        -6.0505753174       -3.2774761002        1.9980173288
  U         6.3923900402       -0.2813325014       -3.2859824956
  U        -3.9366483126        6.3591388265       -0.0075811559
  U        -6.3809442048        0.0647596322       -3.9998216561
  U        -3.0999044958        1.7998574869        5.5208842148
  U        -5.9666556616       -2.9778564682       -2.2860926797
  U         2.9358973392       -6.2242956303       -0.4093475871
  U         3.5515831850       -3.6431680559        3.7199333748
  U         3.1469531334        2.0882419862       -5.8330382979
  U         4.9425199573        5.4833097264       -0.3752758961
  U        -5.8915581560        3.5253310351        0.6227806261
  U         6.0975388872       -0.7709175848        4.2610439699
  U        -5.9451408604        0.8354635820        3.4442749607
  U         4.8804075573       -4.2973841321       -2.7841298931
  U        -0.0134572740       -3.1150004946        6.1429742064
  O         4.9437598371        4.0326456671        1.8133682240
  O         3.2092060925        6.5931929330       -4.4982749932
  O        -4.4062604069        2.1056891664       -7.1176935217
  O        -5.9668375260        5.4691418826        1.4308029485
  O         4.0605577505        0.0139110845        2.6991094079
  O        -1.3542443290       -6.8949882849        1.4478306084
  O        -4.5641234077       -3.8046875295        2.8790637836
  O        -6.0046950565       -2.8971463445        0.2368471493
  O         0.4876130331        5.2459829389       -4.1370662658
  O        -6.0632660441        2.2461162710       -1.5151996905
  O         5.4519122615        3.8477206287       -0.0659202794
  O        -3.7537038934        3.1476458759        6.3992433589
  O         2.4373888649        6.1578584004        4.9376022476
  O        -4.8773523476        4.1468222739       -0.6522855432
  O        -4.3648288460       -3.5281807681       -3.9273611501
  O        -1.1636300491       -8.0877059921        0.8054632176
  O        -7.9415402828       -3.9475243211        2.1840417563
  O         0.9817540907        4.1782129911       -2.0771740479
  O        -7.0660147667        2.2232928694       -1.3975484546
  O         0.4851460531        5.9018621531        4.3419617270
  O        -7.6132691567        0.7827186856        0.7918916946
  O        -7.5423805977       -3.9733327731       -2.8136399138
  O        -4.2094614196       -6.1478183087        2.2099979675
  O        -0.7661692274       -4.6563467152       -0.2458037259
  O         4.6539360012       -4.1169852278        1.3895656139
  O         6.3953273740        1.9886415653       -2.1485972992
  O         3.1612633455       -3.2222341827        2.6544100079
  O         1.1274494588        5.5748351924       -3.5832805652
  O        -2.6712856812        4.9699133744       -0.3037525230
  O         4.2025009404        2.9155206539       -7.1043647241
  O         0.6997256964        3.8159955876        2.6983995765
  O        -5.4527732520        2.7286729220        3.2765524461
  O        -3.9711613949       -5.6337132987       -3.1319927994
  O         4.4244724849       -5.3572383514       -1.7614284198
  O         2.4156685596       -2.6596889575       -1.3688514542
  O         5.8327662900        0.9983783243       -4.7878941477
  O         7.4797061609       -1.0413254939       -5.2057550639
  O         4.9714557489       -2.3144711233       -1.8271695375
  O         5.9929297981        1.7309815956        1.4853234745
  O         4.3933346403        3.2580762917        6.0803789103
  O         0.6500502294        6.6752365543        2.6280658675
  O         0.3365441525       -5.6567023216        3.5790550349
  O         4.4538136798       -4.8030909221        4.3534013789
  O         0.6497477544       -1.6456941450        4.4224626863
  O        -1.8662830780        3.9628846159       -5.3058285282
  O        -1.6510090211        0.9271140364       -6.1456790643
  O         6.0165822856        2.3243269628        5.4968102474
  O         5.3543983147       -2.3093565174        2.7906793061
  O         7.5218393113       -1.2150498362        5.0161055847
  O        -0.7776168967       -5.7963706998       -4.6698141358
  O         0.4714602143       -2.0314639860       -3.3811780769
  O         4.4287538495       -5.1570641712       -3.3021645050
  O         3.6660362797       -7.7525783037       -0.4817669177
  O         7.4418310651        2.3034689447        0.9584214525
  O        -3.9979152599        6.3536705664       -2.3828117879
  O        -1.7118868212        3.3998086003       -2.4679053797
  O         4.4229917327        0.5638263358       -0.3892752662
  O        -1.3542843551        3.9860439101        5.5120105245
  O        -1.2471996843        2.6717422134        7.4022144118
  O         0.3325478678        0.4417495709       -4.4637132916
  O         0.9605054740       -1.1911385462        6.3227582537
  O         2.3796662415       -3.7234283006        4.9924684036
  O         2.8398673537        6.3179928883       -0.6243797795
  O         4.5796084782        0.7709270705       -4.5711619844
  O        -3.5221414815        5.6580205960        2.4944664178
  O        -1.6513409854        3.7778284152        1.3600325366
  O         1.3207997270       -1.2596913335       -5.7796504336
  O         3.3900387657       -4.4600285154       -5.5876602562
  O        -0.1321182949       -4.2408586048        6.0125034649
  O         0.1153235420        0.7996603258        5.0267473154
  O        -2.1206479747       -6.6274970933        5.2290352463
  O        -0.8275048091        6.9268957034       -0.9354274664
  O        -3.5493993497        7.2843471201       -0.8007264684
  O         4.7055854698       -0.1712176305        5.2655305540
  O         3.6371040833        7.1674126591        1.4318811368
  O         0.0300779869       -0.4038154872       -8.8677683710
  O         0.7103469323       -4.1837303834       -6.9966264600
  O        -2.1603359377       -6.7166496158       -4.0453257041
  O        -4.6432433338       -2.7063701828        3.0399538452
  O         1.3204242760       -6.9975751615       -1.2009193980
  O         6.4748848699       -0.8332500654        1.8013930130
  O         4.3908917537        5.4152564623        2.7476537024
  O        -1.4931419781        6.4502624017        1.6677818429
  O        -6.3685040870       -1.6350751826       -4.4188339224
  O         2.1977176104       -7.1202845626        0.1564460913
  O         0.0505565994       -0.4845954303        8.3222000432
  O        -1.2018877408       -3.9377947565        5.1861563905
  O        -3.5996808812       -2.6414893046        1.6215984789
  O         2.0177136006       -4.3866734187        0.3314745514
  O        -2.2613687426        3.2911696036       -4.7546334815
  O        -4.3408032630        1.1119739326       -5.2794219460
  O         2.1220226139        1.0974917242       -2.9684940044
  O        -4.8261606603        2.7644962105        0.7125123473
  O         7.4674630251        0.2407095725       -1.2110012682
  O         4.4888583229        5.1470930642       -2.7347990651
  O        -0.9310362951       -4.4755199108       -5.7721019666
  O        -4.3055391447       -1.6023123323       -0.6730021818
  O         2.5693869291       -4.8232935343        4.6247902639
  O        -2.0881810337        1.2374645644       -6.9374768392
  O        -4.3933376998        0.4425976604       -2.3004552260
  O         2.9559887845        3.4882979675       -0.2286425494
  O         1.8295506770        1.1794488423        3.2793005188
  O        -2.1078543145        3.8752876536        4.4816465315
  O        -4.7867892910        0.2284599047        5.7454115035
  O         2.3541109605       -5.9371241732       -3.6240871296
  O        -1.1593051853       -6.4798526109       -2.3971716573
  O        -4.7981817403       -4.6564862532       -0.4417183200
  O         5.2589562852        7.1278325971        1.0562329100
  O         1.9363414060        3.2296924035       -5.1179424468
  O         4.0519677299        3.6766737930       -3.7082487592
  O        -2.1833075894        0.9008900067        6.6401374318
  O        -3.4026094658        0.9236080640        1.6317147600
  O        -0.7474501640       -6.7383270593        2.3856790290
  O         0.0184192807       -2.3600392881        6.9292677808
  O        -6.0156113642       -0.8850773306        2.1560572292
  O        -1.0961153825       -3.0997746469        2.9044194153
  O        -2.4721900238        1.4760117312       -3.1521864239
  O        -7.6244750914        0.9238130502       -4.8997067707
  O         3.1446029599        4.9375262859        4.7347285516
  O         2.8760999767        4.4646399988        5.4315750916
  O        -1.4049347558       -1.6121057316       -6.7528240145
  O        -1.9107330335       -3.0812587285       -2.7835890700
  O        -7.1521090825       -0.9010348577       -2.0654561213
  O         3.8697994482       -6.0730197625       -1.7223955280
  O        -1.4179060100        6.3674419990       -4.8790376025
  O         2.5179426107        1.1271000781       -6.7487895378
  O         1.8795141570        1.0605057040       -6.1021704911
  O        -5.3618838958        2.0467742655       -4.4862747506
  O         4.7719044926       -1.4267468051       -3.5202989232
  O        -1.1158081339        1.9224446628        3.3795897062
  O        -8.0759348154        0.9124067506        4.4477195879
  O         4.4116515791       -5.5209918366        2.1101019365
  O         4.1633253409       -0.3124208481       -2.5083423910
  O        -7.8644435084        4.0826104493        0.0378519410
  O         2.7331317983       -0.1327089331        6.2183755381
  O         2.2280081083        2.7286137276        6.0398556557
  O        -1.5813011754        6.5103855422        3.6705629598
  O        -3.6960253093        1.8386487796        3.9625992856
  O         4.9319658896       -2.0644377925        5.0394350099
  O        -2.2182286832       -6.3691896996       -1.4756582418
  K        -3.2642230025        1.3983211635       -1.3503686374
  K        -3.0125967915        2.1841222461        2.5683216707
  K        -0.0660286467       -2.9641785858       -1.2748878501
  K         0.9188197041       -3.9502538750        1.9978305881
  K         4.1086119200       -1.2673846562       -0.5024289158
  K         1.0625904108        4.1858935974        0.4753049496
  K        -2.2227774820       -1.3651368622       -3.4877944083
  K        -1.3854236309       -2.1018759717        3.4681244938
  K         2.7755331597        1.6555054429       -2.8139290689
  K         2.9774549649        2.8167626031        2.0145308419
  K         1.7640965935       -0.6509554347       -3.0175478514
  K         1.8165313656       -0.5103916579        3.7702007875
  K        -0.6119294436        2.1704207582       -4.7109329360
  K         0.3261523147        2.1309331655        3.3364875796
  K        -5.5829017357       -0.7889251279       -0.8672547653
  K        -2.0753886549       -3.6252516657        0.6071568234
  K         3.5421263297       -1.6250883205        6.6562386468
  K         2.9640375029       -2.6430159676       -6.8596446402
  K        -6.3513122312        8.1882178913       -2.6611277908
  K        -6.4543218333        7.7596355155        1.7477920212
  K        -3.3314389252        6.6447763413       -7.8345210559
  K        -3.0894662434        5.3999646587        6.5605840321
  K         4.2273322094       -5.8252121350       -6.0055292082
  K         3.7054375222       -6.7457467864        7.3652928958
  K        -1.8281021550        2.7127053261      -10.4637479965
  K        -1.6601418742        0.8551548374       10.5581939609
  K         7.2800530300       -2.6441821909        5.7579816040
  K         7.4791952510       -2.8273554113       -5.7619461229
     196
 i =        2, E =     -4438.5781511351
  U         2.0859320251        5.0048286247       -2.7820711026
  U        -2.0462138483        5.6692498599       -3.1788046963
  U         2.8328851971        1.8534477922        5.3176906749
  U        -0.3510256904        0.6779697478       -6.0168943257
  U        -0.0954972885       -3.0026045600       -5.5526077541
  U        -1.7420225217       -5.2661752776        3.9231742091
  U        -1.3669577211       -6.8899327970       -0.9104564607
  U         6.4972809200        1.2839483694       -0.5223088306
  U        -3.7636464908        2.4687470084       -5.6836515915
  U         2.4192770078        5.5775037768        3.2335852152
  U        -1.5912769648        5.0625214006        3.4107047123
  U        -2.9851033943       -4.8597179949       -3.3621555674
  U         0.4032642209        0.4405338252        6.9206724769
  U        -6.0530243761       -3.2723458017        1.9798108415
  U         6.3845238612       -0.2891167912       -3.3287930117
  U        -3.9170425753        6.2987544002       -0.0190950676
  U        -6.3757791209        0.0798856400       -3.9889421158
  U        -3.0984673853        1.7620048541        5.5585689277
  U        -5.9676632225       -2.9984373327       -2.2560620625
  U         2.9239284340       -6.2353573679       -0.3777075977
  U         3.5644364213       -3.6419884529        3.7221333368
  U         3.1530952971        2.1447004055       -5.8261252994
  U         4.8372391653        5.4723780923       -0.3506776826
  U        -5.9185816274        3.5307837665        0.6444646404
  U         6.0654550838       -0.7319592518        4.2100847533
  U        -6.0138242641        0.8261427228        3.4661177882
  U         4.9357442978       -4.2602756842       -2.8119696713
  U        -0.0056708196       -3.1472317321        6.1742400285
  O         4.9507366406        4.0697572681        1.8023834669
  O         3.1926800813        6.5748578951       -4.4771230118
  O        -4.4249182849        2.1015542619       -7.1498703288
  O        -5.9535503015        5.4917034961        1.4165391305
  O         4.0733187496        0.0101650510        2.7121965435
  O        -1.3702009892       -6.9115835637        1.4464613118
  O        -4.5714073972       -3.8248662181        2.9272104440
  O        -6.0433911409       -2.8956277807        0.2013335197
  O         0.5777652335        5.2637474597       -4.2479821093
  O        -6.1016859086        2.2400129024       -1.5176869050
  O         5.4810687175        3.8461900454       -0.0988656622
  O        -3.7855498381        3.1472478699        6.4081430230
  O         2.4723150687        6.1948674877        4.9321088572
  O        -4.9000701721        4.1632688403       -0.6555606928
  O        -4.3901536247       -3.5379726345       -3.9054516829
  O        -1.1517005000       -8.1215962524        0.8244733548
  O        -7.9238077519       -3.9443045723        2.1866754439
  O         0.9876417096        4.1762861642       -2.0534444711
  O        -7.0531647473        2.2153180672       -1.4006663709
  O         0.4864340802        5.9053095388        4.3268189847
  O        -7.5890803129        0.7964288150        0.7952693818
  O        -7.5296428555       -3.9670150951       -2.8077372579
  O        -4.1870041545       -6.1455370851        2.2200299468
  O        -0.7618321059       -4.6940188090       -0.2341580025
  O         4.6761317503       -4.1417893784        1.3761890034
  O         6.4021633179        1.9653916183       -2.1657513893
  O         3.1712566752       -3.1892767890        2.6108973267
  O         1.0025470090        5.6689136364       -3.4472786226
  O        -2.6336663522        4.9453521125       -0.3189833891
  O         4.2210947118        2.9211132471       -7.1197719239
  O         0.7300183814        3.8398657421        2.7285501231
  O        -5.4910680109        2.7024787545        3.2643678279
  O        -3.9971348251       -5.6921930480       -3.2838573062
  O         4.4535932502       -5.3271891332       -1.7596191118
  O         2.4179801721       -2.6735077950       -1.3737810244
  O         5.8434199862        1.0222669549       -4.8099911163
  O         7.4594717040       -1.0369249223       -5.1428364501
  O         5.0094887300       -2.3554271008       -1.8258172923
  O         6.0079374627        1.7377409417        1.4983443625
  O         4.3896463533        3.2153891935        6.0694022243
  O         0.6480578119        6.6795876158        2.6265983448
  O         0.3151862815       -5.6251207969        3.6197484639
  O         4.4789682808       -4.8093820599        4.3855870631
  O         0.6336832167       -1.6803241219        4.3911659137
  O        -1.8173465576        4.0019488030       -5.3041181813
  O        -1.7198446025        0.9973205417       -6.1144371561
  O         5.9894470210        2.3278187933        5.5064807888
  O         5.3670631968       -2.3018016194        2.7684712246
  O         7.4917358909       -1.2181710401        4.9990796413
  O        -0.8089260743       -5.8060745136       -4.6623436124
  O         0.4525692798       -2.0520335697       -3.4286075099
  O         4.3839472712       -5.0908175088       -3.3266750649
  O         3.6590303425       -7.7769670508       -0.4589584156
  O         7.4470785457        2.3142017110        0.9873719741
  O        -3.9743207852        6.3552827202       -2.3890815705
  O        -1.7179378676        3.4321461463       -2.4869055747
  O         4.4044074008        0.5756821531       -0.4047115511
  O        -1.3457467222        3.9898185088        5.5004903090
  O        -1.2103213375        2.6662924583        7.4091720190
  O         0.3503579730        0.4316654358       -4.4040675791
  O         0.9546304095       -1.1650730496        6.3151079550
  O         2.3779356204       -3.7273622096        5.0325842278
  O         2.8867965476        6.2918703614       -0.6424937282
  O         4.5891039893        0.7674183342       -4.5759045315
  O        -3.5283106808        5.6716223642        2.4713699251
  O        -1.6407944376        3.7864862933        1.3740117358
  O         1.2976795593       -1.2847449267       -5.7831310823
  O         3.4069264431       -4.4494344690       -5.5644449605
  O        -0.1742590002       -4.3244537527        6.0238580064
  O         0.1359456364        0.8064975006        5.0410704682
  O        -2.1269086814       -6.6276260425        5.2341781867
  O        -0.8444915407        6.9076070020       -0.9725774372
  O        -3.5716443310        7.3542491160       -0.7641701769
  O         4.7026986697       -0.1378339905        5.2784040318
  O         3.6435495363        7.1697869979        1.4288890544
  O         0.0469257446       -0.3942863034       -8.8440710794
  O         0.7340238931       -4.1566868170       -6.9965093704
  O        -2.1888062446       -6.7053217052       -4.0568911833
  O        -4.6283998892       -2.6980768526        3.0613200837
  O         1.3037118662       -7.0045126468       -1.2053584873
  O         6.4655711833       -0.8389050364        1.8165477234
  O         4.3805897085        5.4001962385        2.7645266286
  O        -1.4961270606        6.4462890552        1.6492110652
  O        -6.3544677877       -1.6383856543       -4.4136185326
  O         2.1517770567       -7.1481228734        0.2152722514
  O         0.0453438098       -0.4748326713        8.3499144480
  O        -1.2364294565       -3.9148055289        5.1452145838
  O        -3.6041649338       -2.6198486836        1.6313941732
  O         2.0403780635       -4.3909989340        0.3012502226
  O        -2.2793750766        3.3082984008       -4.7526508812
  O        -4.3527145035        1.0764385365       -5.2926759940
  O         2.0643467980        1.1159207013       -2.7797428208
  O        -4.8165078446        2.7415446926        0.6998581329
  O         7.4810328263        0.2390823330       -1.2241220507
  O         4.4921457423        5.1357544610       -2.7252498993
  O        -0.9606474750       -4.4528815087       -5.7469885392
  O        -4.2863859875       -1.5965513629       -0.6896465624
  O         2.5441248182       -4.8403338031        4.6277200012
  O        -2.1029032321        1.2643258063       -7.0052781902
  O        -4.4032006870        0.4322255339       -2.3277698033
  O         2.9686436513        3.5012807182       -0.2523964889
  O         1.8653434617        1.1950390670        3.3053767210
  O        -2.1104455366        3.8630981564        4.4638839618
  O        -4.7895260294        0.2510950816        5.7066529040
  O         2.3476860792       -5.9296901681       -3.6215725805
  O        -1.1183731307       -6.4673334631       -2.4055987224
  O        -4.7968319141       -4.6475873266       -0.4825954961
  O         5.2488646859        7.1194525951        1.0488195422
  O         1.8908985629        3.2444400225       -5.0931526100
  O         4.0464279815        3.6822447542       -3.6769481802
  O        -2.1637711524        0.8424201495        6.6783106903
  O        -3.4155659432        0.8851299536        1.6290983125
  O        -0.7535413722       -6.7427846143        2.3969125553
  O         0.0504577589       -2.3829971296        7.0009727885
  O        -6.0161380548       -0.8723321734        2.1852210853
  O        -1.0751792533       -3.0915021164        2.9114887448
  O        -2.4631536570        1.4819287369       -3.1682640394
  O        -7.6374502258        0.9200787520       -4.9015165879
  O         3.1579493589        4.9374110681        4.7415574270
  O         2.8633876615        4.4577985645        5.4768467693
  O        -1.3901101183       -1.6038649333       -6.7123205373
  O        -1.9253140734       -3.1148116308       -2.8091555456
  O        -7.1393681454       -0.9126122008       -2.0824235151
  O         3.8773669336       -6.0817920563       -1.7275089061
  O        -1.4526539182        6.3862389713       -4.8491758215
  O         2.5540357967        1.1388088463       -6.7901598721
  O         1.9380107115        1.0033999952       -6.1148689557
  O        -5.3792069950        2.0431337148       -4.4642316133
  O         4.7530675546       -1.4292386800       -3.5427243319
  O        -1.1465415159        1.9358560821        3.3840377520
  O        -7.9972787776        0.9065806445        4.4126781391
  O         4.4024598531       -5.5218647185        2.0891964072
  O         4.1914012037       -0.3105991490       -2.5009202303
  O        -7.8526627019        4.0825645146        0.0403205164
  O         2.7440346223       -0.0812549199        6.2235541397
  O         2.0440004760        2.6734957683        6.0874418033
  O        -1.5969780475        6.5506807271        3.6916117867
  O        -3.6779638611        1.8322300707        3.9621730326
  O         4.9665247004       -2.0783545912        5.0515960803
  O        -2.2230450884       -6.2972389941       -1.4750643477
  K        -3.2672336831        1.4005072458       -1.3413615546
  K        -3.0389073955        2.2109597662        2.5150619511
  K        -0.0557511600       -2.9590544533       -1.2687104910
  K         0.9253267180       -3.9549757408        1.9816015067
  K         4.1060993223       -1.2920980352       -0.4820831206
  K         1.0382274552        4.1985168693        0.4557706390
  K        -2.2307864179       -1.3519814819       -3.4828225649
  K        -1.4459019899       -2.0707374038        3.4544637728
  K         2.8389041160        1.6834529023       -2.9890088810
  K         2.9984514124        2.7985231146        1.9899380994
  K         1.8044668788       -0.6948580627       -2.9972843321
  K         1.8375046193       -0.5390964875        3.7460858887
  K        -0.5829446188        2.1802363743       -4.7246918212
  K         0.3156878374        2.1110173111        3.3058367757
  K        -5.5870703372       -0.7715110762       -0.8260412126
  K        -2.1009220629       -3.6247067624        0.5826192154
  K         3.5386427531       -1.6181052345        6.6690113865
  K         2.9648013996       -2.6291626022       -6.8767340735
  K        -6.3461450200        8.1795798049       -2.6629057610
  K        -6.4611827164        7.7609937131        1.7596293838
  K        -3.3260583216        6.6425573717       -7.8271893105
  K        -3.0878255152        5.4197985459        6.5672726211
  K         4.2212213697       -5.8499981386       -6.0168311504
  K         3.7041422981       -6.7443461859        7.3562500474
  K        -1.8340785447        2.7448276599      -10.4634346700
  K        -1.6748792373        0.8219090958       10.5528419113
  K         7.3074043152       -2.6762531458        5.7819349295
  K         7.4850814462       -2.8297450528       -5.7731147585
     196
 i =        3, E =     -4444.9055369313
  U         2.1668636604        4.9970146526       -2.6904338630
  U        -2.0462654386        5.6680952647       -3.1767938691
  U         2.8735248287        1.6426846623        5.1739304589
  U        -0.2502960126        0.6753803485       -6.0306372706
  U        -0.0905186369       -2.9933378817       -5.5551854846
  U        -1.7450389776       -5.2770821921        3.9176324034
  U        -1.2235279050       -6.9121260602       -0.8043666962
  U         6.4880836045        1.2907463700       -0.5110598755
  U        -3.7563684810        2.4826603660       -5.6826099680
  U         2.4144274637        5.5824579419        3.2204281426
  U        -1.5893074614        5.0559459910        3.4021974274
  U        -2.8278947195       -4.7496142324       -3.4724344378
  U         0.4005026046        0.4454574543        6.9237945651
  U        -6.0642104841       -3.2732113487        1.9753200838
  U         6.3840848641       -0.2904882590       -3.3332873733
  U        -3.9497471559        6.2503022007        0.0429265298
  U        -6.3752238892        0.0844972174       -3.9863896905
  U        -3.0950772977        1.7563295215        5.5639320749
  U        -5.9699164865       -2.9999346118       -2.2536101909
  U         2.9413003801       -6.1941691305       -0.3832624805
  U         3.6033509339       -3.6621612992        3.8020134671
  U         3.1813790261        2.1665574185       -5.8082950602
  U         4.8299755216        5.4766549435       -0.3503667716
  U        -5.9666406407        3.5613311584        0.6390165074
  U         6.0575709988       -0.7250818406        4.2023611359
  U        -6.0179194398        0.8245549453        3.4662498929
  U         4.8997200637       -4.1938562468       -2.8028701794
  U         0.0095591987       -3.0678113906        6.1082310789
  O         4.9518401450        4.0718253388        1.8024481619
  O         3.1911940473        6.5734765089       -4.4772727797
  O        -4.4287416248        2.1001371512       -7.1577820811
  O        -5.9529984379        5.4930184863        1.4156318050
  O         4.0733718579        0.0092683906        2.7123935432
  O        -1.3741739910       -6.9114545170        1.4409391516
  O        -4.5647047230       -3.8405944836        2.9301174199
  O        -6.0460318135       -2.8951978904        0.1973476069
  O         0.4718072542        5.2400448588       -4.2835626758
  O        -6.2064126577        2.2366899353       -1.5047630076
  O         5.4823352905        3.8425606312       -0.1018368547
  O        -3.7898390033        3.1517017904        6.4123374390
  O         2.4701796977        6.2049035600        4.9346410363
  O        -4.8981557288        4.1643399898       -0.6580712832
  O        -4.3943119595       -3.5380699780       -3.9059639489
  O        -1.1502572832       -8.1241954119        0.8262434312
  O        -7.9230338900       -3.9439501810        2.1866447240
  O         0.9739500459        4.1612946290       -2.0472614891
  O        -6.9501721781        2.2175678909       -1.4140882039
  O         0.4861227864        5.9051736329        4.3261446768
  O        -7.5884789694        0.7967382867        0.7960531111
  O        -7.5281107028       -3.9657793798       -2.8072475559
  O        -4.1853548919       -6.1453828459        2.2206487373
  O        -0.7611070032       -4.6979103966       -0.2328646335
  O         4.6772902025       -4.1434741560        1.3756571603
  O         6.4029661198        1.9654289887       -2.1708138544
  O         3.1367017572       -3.1542056775        2.5137948144
  O         1.0473976183        5.7144860810       -3.5066686007
  O        -2.6315801229        4.9458285779       -0.3192173776
  O         4.2231362103        2.9214817910       -7.1208885333
  O         0.7306645899        3.8418001530        2.7307653978
  O        -5.4929040058        2.6995141487        3.2635423375
  O        -4.1451680153       -5.8005408301       -3.1729924338
  O         4.4947490489       -5.2812316295       -1.7522248819
  O         2.4183970131       -2.6733333994       -1.3743531417
  O         5.8455501521        1.0236005019       -4.8102999810
  O         7.4585920897       -1.0341787519       -5.1385481152
  O         5.0120713243       -2.3588833468       -1.8271205178
  O         6.0093956361        1.7384994252        1.4989700255